ITEM: TIMESTEP
0
ITEM: NUMBER OF ATOMS
15
ITEM: BOX BOUNDS ff ff ff
-5.0000000000000000e+02 5.0000000000000000e+02
-5.0000000000000000e+02 5.0000000000000000e+02
-5.0000000000000000e+02 5.0000000000000000e+02
ITEM: ATOMS id type q c_1[1] c_1[2] x y z fx fy fz c_1[3] 
4 2 1 0 0 1 -1 -1 0.59302 -0.59302 -0.59302 0 
9 3 0 -1 1 1 -1 -1 -0.536936 0.536936 0.536936 1.86277 
14 3 0 1 1 1 -1 -1 -0.536936 0.536936 0.536936 1.86277 
3 2 1 0 0 -1 -1 1 -0.59302 -0.59302 0.59302 0 
8 3 0 -1 1 -1 -1 1 0.536936 0.536936 -0.536936 1.86277 
13 3 0 1 1 -1 -1 1 0.536936 0.536936 -0.536936 1.86277 
5 2 1 0 0 -1 1 -1 -0.59302 0.59302 -0.59302 0 
10 3 0 -1 1 -1 1 -1 0.536936 -0.536936 0.536936 1.86277 
15 3 0 1 1 -1 1 -1 0.536936 -0.536936 0.536936 1.86277 
1 1 6 0 0 0 0 0 0 0 0 0 
2 2 1 0 0 1 1 1 0.59302 0.59302 0.59302 0 
6 3 0 -1 0.5 0 0 0 -2.77556e-17 -2.77556e-17 -5.55112e-17 -12.3456 
7 3 0 -1 1 1 1 1 -0.536936 -0.536936 -0.536936 1.86277 
11 3 0 1 0.5 0 0 0 -2.77556e-17 -2.77556e-17 0 -12.3456 
12 3 0 1 1 1 1 1 -0.536936 -0.536936 -0.536936 1.86277 
ITEM: TIMESTEP
10
ITEM: NUMBER OF ATOMS
15
ITEM: BOX BOUNDS ff ff ff
-5.0000000000000000e+02 5.0000000000000000e+02
-5.0000000000000000e+02 5.0000000000000000e+02
-5.0000000000000000e+02 5.0000000000000000e+02
ITEM: ATOMS id type q c_1[1] c_1[2] x y z fx fy fz c_1[3] 
4 2 1 0 0 1.00942 -1.00942 -1.00942 0.502942 -0.502942 -0.502942 0 
9 3 0 -1 1.03108 0.991089 -0.991089 -0.991089 -0.502165 0.502165 0.502165 1.65028 
14 3 0 1 1.03108 0.991089 -0.991089 -0.991089 -0.502165 0.502165 0.502165 1.65028 
3 2 1 0 0 -1.00942 -1.00942 1.00942 -0.502942 -0.502942 0.502942 0 
8 3 0 -1 1.03108 -0.991089 -0.991089 0.991089 0.502165 0.502165 -0.502165 1.65028 
13 3 0 1 1.03108 -0.991089 -0.991089 0.991089 0.502165 0.502165 -0.502165 1.65028 
5 2 1 0 0 -1.00942 1.00942 -1.00942 -0.502942 0.502942 -0.502942 0 
10 3 0 -1 1.03108 -0.991089 0.991089 -0.991089 0.502165 -0.502165 0.502165 1.65028 
15 3 0 1 1.03108 -0.991089 0.991089 -0.991089 0.502165 -0.502165 0.502165 1.65028 
1 1 6 0 0 0 0 0 0 0 0 0 
2 2 1 0 0 1.00942 1.00942 1.00942 0.502942 0.502942 0.502942 0 
6 3 0 -1 0.452419 7.91626e-21 7.91626e-21 -8.63689e-20 -2.77556e-17 -2.77556e-17 -5.55112e-17 -11.931 
7 3 0 -1 1.03108 0.991089 0.991089 0.991089 -0.502165 -0.502165 -0.502165 1.65028 
11 3 0 1 0.452419 7.91626e-21 7.91626e-21 9.94793e-20 -2.77556e-17 -2.77556e-17 0 -11.931 
12 3 0 1 1.03108 0.991089 0.991089 0.991089 -0.502165 -0.502165 -0.502165 1.65028 
ITEM: TIMESTEP
20
ITEM: NUMBER OF ATOMS
15
ITEM: BOX BOUNDS ff ff ff
-5.0000000000000000e+02 5.0000000000000000e+02
-5.0000000000000000e+02 5.0000000000000000e+02
-5.0000000000000000e+02 5.0000000000000000e+02
ITEM: ATOMS id type q c_1[1] c_1[2] x y z fx fy fz c_1[3] 
4 2 1 0 0 1.01892 -1.01892 -1.01892 0.422848 -0.422848 -0.422848 0 
9 3 0 -1 1.06587 0.981154 -0.981154 -0.981154 -0.467 0.467 0.467 1.43601 
14 3 0 1 1.06587 0.981154 -0.981154 -0.981154 -0.467 0.467 0.467 1.43601 
3 2 1 0 0 -1.01892 -1.01892 1.01892 -0.422848 -0.422848 0.422848 0 
8 3 0 -1 1.06587 -0.981154 -0.981154 0.981154 0.467 0.467 -0.467 1.43601 
13 3 0 1 1.06587 -0.981154 -0.981154 0.981154 0.467 0.467 -0.467 1.43601 
5 2 1 0 0 -1.01892 1.01892 -1.01892 -0.422848 0.422848 -0.422848 0 
10 3 0 -1 1.06587 -0.981154 0.981154 -0.981154 0.467 -0.467 0.467 1.43601 
15 3 0 1 1.06587 -0.981154 0.981154 -0.981154 0.467 -0.467 0.467 1.43601 
1 1 6 0 0 0 0 -1.01433e-18 0 0 -8.88178e-16 0 
2 2 1 0 0 1.01892 1.01892 1.01892 0.422848 0.422848 0.422848 0 
6 3 0 -1 0.409365 -4.35039e-20 -4.35039e-20 2.0228e-20 -5.55112e-17 -5.55112e-17 2.22045e-16 -10.364 
7 3 0 -1 1.06587 0.981154 0.981154 0.981154 -0.467 -0.467 -0.467 1.43601 
11 3 0 1 0.409365 -4.35039e-20 -4.35039e-20 1.29011e-18 -5.55112e-17 -5.55112e-17 4.44089e-16 -10.364 
12 3 0 1 1.06587 0.981154 0.981154 0.981154 -0.467 -0.467 -0.467 1.43601 
ITEM: TIMESTEP
30
ITEM: NUMBER OF ATOMS
15
ITEM: BOX BOUNDS ff ff ff
-5.0000000000000000e+02 5.0000000000000000e+02
-5.0000000000000000e+02 5.0000000000000000e+02
-5.0000000000000000e+02 5.0000000000000000e+02
ITEM: ATOMS id type q c_1[1] c_1[2] x y z fx fy fz c_1[3] 
4 2 1 0 0 1.02995 -1.02995 -1.02995 0.343676 -0.343676 -0.343676 0 
9 3 0 -1 1.11053 0.968351 -0.968351 -0.968351 -0.42155 0.42155 0.42155 1.18337 
14 3 0 1 1.11053 0.968351 -0.968351 -0.968351 -0.42155 0.42155 0.42155 1.18337 
3 2 1 0 0 -1.02995 -1.02995 1.02995 -0.343676 -0.343676 0.343676 0 
8 3 0 -1 1.11053 -0.968351 -0.968351 0.968351 0.42155 0.42155 -0.42155 1.18337 
13 3 0 1 1.11053 -0.968351 -0.968351 0.968351 0.42155 0.42155 -0.42155 1.18337 
5 2 1 0 0 -1.02995 1.02995 -1.02995 -0.343676 0.343676 -0.343676 0 
10 3 0 -1 1.11053 -0.968351 0.968351 -0.968351 0.42155 -0.42155 0.42155 1.18337 
15 3 0 1 1.11053 -0.968351 0.968351 -0.968351 0.42155 -0.42155 0.42155 1.18337 
1 1 6 0 0 0 0 -4.38503e-14 0 0 -3.30136e-11 0 
2 2 1 0 0 1.02995 1.02995 1.02995 0.343676 0.343676 0.343676 0 
6 3 0 -1 0.370409 -2.08503e-20 -2.08503e-20 2.18433e-14 5.55112e-17 5.55112e-17 1.64867e-11 -7.02807 
7 3 0 -1 1.11053 0.968351 0.968351 0.968351 -0.42155 -0.42155 -0.42155 1.18337 
11 3 0 1 0.370409 -1.9598e-19 -1.9598e-19 2.20007e-14 5.55112e-17 5.55112e-17 1.65277e-11 -7.02807 
12 3 0 1 1.11053 0.968351 0.968351 0.968351 -0.42155 -0.42155 -0.42155 1.18337 
ITEM: TIMESTEP
40
ITEM: NUMBER OF ATOMS
15
ITEM: BOX BOUNDS ff ff ff
-5.0000000000000000e+02 5.0000000000000000e+02
-5.0000000000000000e+02 5.0000000000000000e+02
-5.0000000000000000e+02 5.0000000000000000e+02
ITEM: ATOMS id type q c_1[1] c_1[2] x y z fx fy fz c_1[3] 
4 2 1 0 0 1.04928 -1.04928 -1.04928 0.239013 -0.239013 -0.239006 0 
9 3 0 -1 1.19587 0.943483 -0.943483 -0.943483 -0.312165 0.312165 0.312157 0.733371 
14 3 0 1 1.19587 0.943483 -0.943483 -0.943483 -0.312165 0.312165 0.312157 0.733371 
3 2 1 0 0 -1.04928 -1.04928 1.04928 -0.239 -0.239 0.239006 0 
8 3 0 -1 1.19587 -0.943483 -0.943483 0.943483 0.312149 0.312149 -0.312157 0.733374 
13 3 0 1 1.19587 -0.943483 -0.943483 0.943483 0.312149 0.312149 -0.312157 0.733374 
5 2 1 0 0 -1.04928 1.04928 -1.04928 -0.239013 0.239013 -0.239006 0 
10 3 0 -1 1.19587 -0.943483 0.943483 -0.943483 0.312165 -0.312165 0.312157 0.733371 
15 3 0 1 1.19587 -0.943483 0.943483 -0.943483 0.312165 -0.312165 0.312157 0.733371 
1 1 6 0 0 -8.4054e-13 -8.4054e-13 -5.60821e-06 8.4561e-10 8.45609e-10 0.00564204 0 
2 2 1 0 0 1.04928 1.04928 1.04928 0.239 0.239 0.239006 0 
6 3 0 -1 0.336573 4.20992e-13 4.2099e-13 2.80543e-06 -4.22761e-10 -4.2276e-10 -0.00281948 -1.46757 
7 3 0 -1 1.19587 0.943483 0.943483 0.943483 -0.312149 -0.312149 -0.312157 0.733374 
11 3 0 1 0.336573 4.19945e-13 4.19945e-13 2.80544e-06 -4.22388e-10 -4.22388e-10 -0.00281948 -1.46757 
12 3 0 1 1.19587 0.943483 0.943483 0.943483 -0.312149 -0.312149 -0.312157 0.733374 
ITEM: TIMESTEP
50
ITEM: NUMBER OF ATOMS
15
ITEM: BOX BOUNDS ff ff ff
-5.0000000000000000e+02 5.0000000000000000e+02
-5.0000000000000000e+02 5.0000000000000000e+02
-5.0000000000000000e+02 5.0000000000000000e+02
ITEM: ATOMS id type q c_1[1] c_1[2] x y z fx fy fz c_1[3] 
4 2 1 0 0 1.07333 -1.07333 -1.07334 0.160141 -0.160141 -0.155342 0 
9 3 0 -1 1.29347 0.914474 -0.914474 -0.914468 -0.136606 0.136606 0.129285 0.256031 
14 3 0 1 1.29347 0.914474 -0.914474 -0.914468 -0.136606 0.136606 0.129285 0.256031 
3 2 1 0 0 -1.07334 -1.07334 1.07334 -0.150563 -0.150563 0.155337 0 
8 3 0 -1 1.29347 -0.914462 -0.914462 0.914469 0.123463 0.123463 -0.130754 0.260495 
13 3 0 1 1.29347 -0.914462 -0.914462 0.914469 0.123463 0.123463 -0.130754 0.260495 
5 2 1 0 0 -1.07333 1.07333 -1.07334 -0.160141 0.160141 -0.155342 0 
10 3 0 -1 1.29347 -0.914474 0.914474 -0.914468 0.136606 -0.136606 0.129285 0.256031 
15 3 0 1 1.29347 -0.914474 0.914474 -0.914468 0.136606 -0.136606 0.129285 0.256031 
1 1 6 0 0 -6.5595e-10 -6.55949e-10 -0.00437529 7.05299e-07 7.05299e-07 4.70384 0 
2 2 1 0 0 1.07334 1.07334 1.07334 0.150563 0.150563 0.155337 0 
6 3 0 -1 0.329179 3.27617e-10 3.27617e-10 0.00218467 -3.522e-07 -3.52199e-07 -2.34898 0.00754737 
7 3 0 -1 1.29347 0.914462 0.914462 0.914469 -0.123463 -0.123463 -0.130754 0.260495 
11 3 0 1 0.329179 3.27661e-10 3.27661e-10 0.00218467 -3.52215e-07 -3.52214e-07 -2.34898 0.00754736 
12 3 0 1 1.29347 0.914462 0.914462 0.914469 -0.123463 -0.123463 -0.130754 0.260495 
ITEM: TIMESTEP
60
ITEM: NUMBER OF ATOMS
15
ITEM: BOX BOUNDS ff ff ff
-5.0000000000000000e+02 5.0000000000000000e+02
-5.0000000000000000e+02 5.0000000000000000e+02
-5.0000000000000000e+02 5.0000000000000000e+02
ITEM: ATOMS id type q c_1[1] c_1[2] x y z fx fy fz c_1[3] 
4 2 1 0 0 1.10103 -1.10103 -1.10103 0.0931309 -0.0931309 -0.0927613 0 
9 3 0 -1 1.36988 0.892996 -0.892996 -0.892997 0.041579 -0.041579 -0.0422115 -0.0436987 
14 3 0 1 1.36988 0.892996 -0.892996 -0.892997 0.041579 -0.041579 -0.0422115 -0.0436987 
3 2 1 0 0 -1.10103 -1.10103 1.10103 -0.0923824 -0.0923824 0.0927612 0 
8 3 0 -1 1.36988 -0.892995 -0.892995 0.892997 -0.0426564 -0.0426564 0.042016 -0.0431816 
13 3 0 1 1.36988 -0.892995 -0.892995 0.892997 -0.0426564 -0.0426564 0.042016 -0.0431816 
5 2 1 0 0 -1.10103 1.10103 -1.10103 -0.0931309 0.0931309 -0.0927613 0 
10 3 0 -1 1.36988 -0.892996 0.892996 -0.892997 -0.041579 0.041579 -0.0422115 -0.0436987 
15 3 0 1 1.36988 -0.892996 0.892996 -0.892997 -0.041579 0.041579 -0.0422115 -0.0436987 
1 1 6 0 0 -5.6029e-11 -5.60291e-11 -0.000369547 6.14043e-08 6.14044e-08 0.403305 0 
2 2 1 0 0 1.10103 1.10103 1.10103 0.0923824 0.0923824 0.0927612 0 
6 3 0 -1 0.327568 2.83121e-11 2.8312e-11 0.000184058 -3.06638e-08 -3.06638e-08 -0.201262 0.00749483 
7 3 0 -1 1.36988 0.892995 0.892995 0.892997 0.0426564 0.0426564 0.042016 -0.0431816 
11 3 0 1 0.327568 2.81971e-11 2.81972e-11 0.000184059 -3.06193e-08 -3.06194e-08 -0.201262 0.00749483 
12 3 0 1 1.36988 0.892995 0.892995 0.892997 0.0426564 0.0426564 0.042016 -0.0431816 
ITEM: TIMESTEP
70
ITEM: NUMBER OF ATOMS
15
ITEM: BOX BOUNDS ff ff ff
-5.0000000000000000e+02 5.0000000000000000e+02
-5.0000000000000000e+02 5.0000000000000000e+02
-5.0000000000000000e+02 5.0000000000000000e+02
ITEM: ATOMS id type q c_1[1] c_1[2] x y z fx fy fz c_1[3] 
4 2 1 0 0 1.15903 -1.15903 -1.15903 0.0344199 -0.0344199 -0.0340628 0 
9 3 0 -1 1.41017 0.91949 -0.91949 -0.919489 0.0351262 -0.0351262 -0.0357704 -0.0241854 
14 3 0 1 1.41017 0.91949 -0.91949 -0.919489 0.0351245 -0.0351245 -0.0357694 -0.0241845 
3 2 1 0 0 -1.15903 -1.15903 1.15903 -0.0337069 -0.0337069 0.0340619 0 
8 3 0 -1 1.41017 -0.919489 -0.919489 0.919489 -0.0362051 -0.0362051 0.0355626 -0.0236507 
13 3 0 1 1.41017 -0.919489 -0.919489 0.919489 -0.0362068 -0.0362068 0.0355636 -0.0236516 
5 2 1 0 0 -1.15903 1.15903 -1.15903 -0.0344199 0.0344199 -0.0340628 0 
10 3 0 -1 1.41017 -0.91949 0.91949 -0.919489 -0.0351262 0.0351262 -0.0357704 -0.0241854 
15 3 0 1 1.41017 -0.91949 0.91949 -0.919489 -0.0351245 0.0351245 -0.0357694 -0.0241845 
1 1 6 0 0 -6.25356e-11 -6.25357e-11 -0.000410966 7.22021e-08 7.22022e-08 0.474467 0 
2 2 1 0 0 1.15903 1.15903 1.15903 0.0337069 0.0337069 0.0340619 0 
6 3 0 -1 0.321447 3.05577e-09 3.04966e-09 0.000203034 -1.28271e-06 -1.28019e-06 -0.236119 1.89387 
7 3 0 -1 1.41017 0.919489 0.919489 0.919489 0.0362051 0.0362051 0.0355626 -0.0236507 
11 3 0 1 0.321447 -2.99346e-09 -2.98735e-09 0.000206432 1.21063e-06 1.20812e-06 -0.237519 1.89388 
12 3 0 1 1.41017 0.919489 0.919489 0.919489 0.0362068 0.0362068 0.0355636 -0.0236516 
ITEM: TIMESTEP
80
ITEM: NUMBER OF ATOMS
15
ITEM: BOX BOUNDS ff ff ff
-5.0000000000000000e+02 5.0000000000000000e+02
-5.0000000000000000e+02 5.0000000000000000e+02
-5.0000000000000000e+02 5.0000000000000000e+02
ITEM: ATOMS id type q c_1[1] c_1[2] x y z fx fy fz c_1[3] 
4 2 1 0 0 1.19865 -1.19865 -1.19865 0.0118234 -0.0118234 -0.0120581 0 
9 3 0 -1 1.43488 0.946876 -0.946876 -0.946876 0.0134302 -0.0134299 -0.0130346 0.0103992 
14 3 0 1 1.43488 0.946876 -0.946876 -0.946876 0.0136137 -0.0136139 -0.0131421 0.0102877 
3 2 1 0 0 -1.19865 -1.19865 1.19865 -0.0122966 -0.0122966 0.0120582 0 
8 3 0 -1 1.43488 -0.946877 -0.946877 0.946876 -0.0128783 -0.0128783 0.013277 0.00993835 
13 3 0 1 1.43488 -0.946877 -0.946877 0.946876 -0.0126941 -0.0126941 0.0131685 0.0100506 
5 2 1 0 0 -1.19865 1.19865 -1.19865 -0.0118234 0.0118234 -0.0120581 0 
10 3 0 -1 1.43488 -0.946876 0.946876 -0.946876 -0.0134299 0.0134302 -0.0130346 0.0103992 
15 3 0 1 1.43488 -0.946876 0.946876 -0.946876 -0.0136139 0.0136137 -0.0131421 0.0102877 
1 1 6 0 0 5.27376e-11 5.27253e-11 0.000301094 -5.28507e-08 -5.28323e-08 -0.315746 0 
2 2 1 0 0 1.19865 1.19865 1.19865 0.0122966 0.0122966 0.0120582 0 
6 3 0 -1 0.332029 -2.90912e-07 -2.90325e-07 6.20208e-05 0.000108214 0.000107995 0.0785774 -0.861805 
7 3 0 -1 1.43488 0.946877 0.946877 0.946876 0.0128781 0.0128781 0.0132765 0.00993866 
11 3 0 1 0.332029 2.90867e-07 2.9028e-07 -0.000362951 -0.00010816 -0.000107942 0.236631 -0.861081 
12 3 0 1 1.43488 0.946877 0.946877 0.946876 0.0126943 0.0126943 0.013169 0.0100503 
ITEM: TIMESTEP
90
ITEM: NUMBER OF ATOMS
15
ITEM: BOX BOUNDS ff ff ff
-5.0000000000000000e+02 5.0000000000000000e+02
-5.0000000000000000e+02 5.0000000000000000e+02
-5.0000000000000000e+02 5.0000000000000000e+02
ITEM: ATOMS id type q c_1[1] c_1[2] x y z fx fy fz c_1[3] 
4 2 1 0 0 1.21247 -1.21247 -1.21247 0.016921 -0.016921 -0.0171799 0 
9 3 0 -1 1.46115 0.957425 -0.957425 -0.957426 0.012771 -0.0127713 -0.0122039 -0.0168224 
14 3 0 1 1.46114 0.957426 -0.957426 -0.957427 0.0123216 -0.0123213 -0.0119421 -0.0165546 
3 2 1 0 0 -1.21247 -1.21247 1.21247 -0.0174377 -0.0174377 0.01718 0 
8 3 0 -1 1.46115 -0.957427 -0.957427 0.957427 -0.0115294 -0.0115294 0.0120949 -0.0169442 
13 3 0 1 1.46115 -0.957426 -0.957426 0.957426 -0.0119805 -0.0119805 0.0123587 -0.0172133 
5 2 1 0 0 -1.21247 1.21247 -1.21247 -0.016921 0.016921 -0.0171799 0 
10 3 0 -1 1.46115 -0.957425 0.957425 -0.957426 -0.0127713 0.012771 -0.0122039 -0.0168224 
15 3 0 1 1.46114 -0.957426 0.957426 -0.957427 -0.0123213 0.0123216 -0.0119421 -0.0165546 
1 1 6 0 0 5.20546e-10 5.19405e-10 0.000340677 -2.96222e-07 -2.94415e-07 -0.372759 0 
2 2 1 0 0 1.21247 1.21247 1.21247 0.0174377 0.0174377 0.01718 0 
6 3 0 -1 0.327348 7.59184e-07 7.57653e-07 -0.000724697 -0.000295062 -0.000294467 0.40171 0.381862 
7 3 0 -1 1.46115 0.957427 0.957427 0.957427 0.0115303 0.0115303 0.0120962 -0.0169449 
11 3 0 1 0.327349 -7.58951e-07 -7.57417e-07 0.000384157 0.000295362 0.000294765 -0.0295665 0.379728 
12 3 0 1 1.46115 0.957426 0.957426 0.957426 0.0119796 0.0119796 0.0123575 -0.0172126 
ITEM: TIMESTEP
100
ITEM: NUMBER OF ATOMS
15
ITEM: BOX BOUNDS ff ff ff
-5.0000000000000000e+02 5.0000000000000000e+02
-5.0000000000000000e+02 5.0000000000000000e+02
-5.0000000000000000e+02 5.0000000000000000e+02
ITEM: ATOMS id type q c_1[1] c_1[2] x y z fx fy fz c_1[3] 
4 2 1 0 0 1.23871 -1.23871 -1.23871 0.000379249 -0.000379258 -0.000502957 0 
9 3 0 -1 1.47191 0.974943 -0.974943 -0.974944 -0.00490462 0.00490485 0.00509226 0.0173615 
14 3 0 1 1.47191 0.974942 -0.974943 -0.974944 -0.00470557 0.00470538 0.00497426 0.0172359 
3 2 1 0 0 -1.23871 -1.23871 1.23871 -0.000623703 -0.000623703 0.000503056 0 
8 3 0 -1 1.47191 -0.974943 -0.974943 0.974944 0.00508761 0.00508761 -0.00490268 0.0170533 
13 3 0 1 1.47191 -0.974944 -0.974944 0.974944 0.00528654 0.00528654 -0.00502059 0.0171784 
5 2 1 0 0 -1.23871 1.23871 -1.23871 -0.000379258 0.000379249 -0.000502957 0 
10 3 0 -1 1.47191 -0.974943 0.974943 -0.974944 0.00490485 -0.00490462 0.00509226 0.0173615 
15 3 0 1 1.47191 -0.974943 0.974942 -0.974944 0.00470538 -0.00470557 0.00497427 0.0172359 
1 1 6 0 0 7.15377e-09 7.13702e-09 0.000171902 -7.09987e-06 -7.08065e-06 -0.184872 0 
2 2 1 0 0 1.23871 1.23871 1.23871 0.000623712 0.000623712 0.000503074 0 
6 3 0 -1 0.329185 -3.68307e-07 -3.67558e-07 0.000181315 0.00014325 0.000142958 -0.00977317 -0.0160582 
7 3 0 -1 1.47191 0.974943 0.974943 0.974944 -0.00508796 -0.00508796 -0.00490324 0.0170536 
11 3 0 1 0.329185 3.62816e-07 3.62087e-07 -0.00035297 -0.000136161 -0.000135888 0.194358 -0.0157396 
12 3 0 1 1.47191 0.974943 0.974943 0.974944 -0.00528621 -0.00528621 -0.00502009 0.017178 
ITEM: TIMESTEP
110
ITEM: NUMBER OF ATOMS
15
ITEM: BOX BOUNDS ff ff ff
-5.0000000000000000e+02 5.0000000000000000e+02
-5.0000000000000000e+02 5.0000000000000000e+02
-5.0000000000000000e+02 5.0000000000000000e+02
ITEM: ATOMS id type q c_1[1] c_1[2] x y z fx fy fz c_1[3] 
4 2 1 0 0 1.24262 -1.24262 -1.24262 8.27508e-05 -7.66409e-05 -0.000137728 0 
9 3 0 -1 1.47999 0.976082 -0.976082 -0.976082 0.000285938 -0.000297957 -0.000166495 0.00406081 
14 3 0 1 1.47998 0.976082 -0.976082 -0.976082 0.000198462 -0.00020923 -0.00011173 0.00411739 
3 2 1 0 0 -1.24262 -1.24262 1.24262 -0.000200783 -0.00020079 0.000143933 0 
8 3 0 -1 1.47999 -0.976083 -0.976083 0.976082 -2.22432e-05 -2.22309e-05 0.000143152 0.00401744 
13 3 0 1 1.47999 -0.976083 -0.976083 0.976082 -9.86126e-05 -9.86017e-05 0.000186945 0.00397243 
5 2 1 0 0 -1.24262 1.24262 -1.24262 -7.66471e-05 8.2757e-05 -0.000137741 0 
10 3 0 -1 1.47999 -0.976082 0.976082 -0.976082 -0.000297946 0.000285927 -0.000166472 0.0040608 
15 3 0 1 1.47998 -0.976082 0.976082 -0.976082 -0.000209225 0.000198457 -0.000111714 0.00411738 
1 1 6 0 0 -4.35507e-06 -4.34622e-06 8.33561e-05 0.00469657 0.00468703 -0.0897805 0 
2 2 1 0 0 1.24262 1.24262 1.24262 0.00019468 0.000194674 0.000131713 0 
6 3 0 -1 0.328947 4.50134e-06 4.49219e-06 -0.000150876 -0.00323417 -0.0032276 0.0866912 0.0386286 
7 3 0 -1 1.47999 0.976083 0.976083 0.976082 3.26595e-05 3.26718e-05 0.000165679 0.00402463 
11 3 0 1 0.328933 -1.45336e-07 -1.4504e-07 6.78181e-05 -0.00145507 -0.00145211 0.00294705 0.0433317 
12 3 0 1 1.47999 0.976083 0.976083 0.976082 0.000103636 0.000103647 0.000202667 0.00398384 
ITEM: TIMESTEP
120
ITEM: NUMBER OF ATOMS
15
ITEM: BOX BOUNDS ff ff ff
-5.0000000000000000e+02 5.0000000000000000e+02
-5.0000000000000000e+02 5.0000000000000000e+02
-5.0000000000000000e+02 5.0000000000000000e+02
ITEM: ATOMS id type q c_1[1] c_1[2] x y z fx fy fz c_1[3] 
4 2 1 0 0 1.2474 -1.2474 -1.2474 -0.000936679 0.000938379 0.000935457 0 
9 3 0 -1 1.48607 0.97876 -0.97876 -0.978759 0.00111264 -0.00111583 -0.00110719 -0.0005053 
14 3 0 1 1.48607 0.978761 -0.978761 -0.97876 0.00108448 -0.00108766 -0.00108051 -0.000479554 
3 2 1 0 0 -1.2474 -1.2474 1.2474 0.000927295 0.000927293 -0.000933719 0 
8 3 0 -1 1.48607 -0.978761 -0.978761 0.978759 -0.00109536 -0.00109536 0.00110521 -0.000510865 
13 3 0 1 1.48607 -0.978761 -0.978761 0.97876 -0.00107428 -0.00107428 0.00108266 -0.000489437 
5 2 1 0 0 -1.2474 1.2474 -1.2474 0.000938378 -0.000936677 0.000935454 0 
10 3 0 -1 1.48607 -0.97876 0.97876 -0.978759 -0.00111583 0.00111264 -0.00110718 -0.000505302 
15 3 0 1 1.48607 -0.978761 0.978761 -0.97876 -0.00108766 0.00108448 -0.0010805 -0.000479557 
1 1 6 0 0 -1.24048e-06 -1.23796e-06 6.16913e-06 0.00133092 0.00132821 -0.00672239 0 
2 2 1 0 0 1.2474 1.2474 1.2474 -0.000928997 -0.000928999 -0.000937124 0 
6 3 0 -1 0.329158 7.78064e-07 7.76483e-07 -7.90851e-06 -0.000726861 -0.000725383 0.00515683 -0.0124248 
7 3 0 -1 1.48607 0.978761 0.978761 0.978759 0.00109769 0.00109769 0.00111073 -0.000508347 
11 3 0 1 0.329109 4.50443e-07 4.49527e-07 1.52003e-06 -0.000601972 -0.000600749 0.00155449 0.00418196 
12 3 0 1 1.48607 0.978761 0.978761 0.97876 0.00107624 0.00107624 0.0010878 -0.000486636 
ITEM: TIMESTEP
130
ITEM: NUMBER OF ATOMS
15
ITEM: BOX BOUNDS ff ff ff
-5.0000000000000000e+02 5.0000000000000000e+02
-5.0000000000000000e+02 5.0000000000000000e+02
-5.0000000000000000e+02 5.0000000000000000e+02
ITEM: ATOMS id type q c_1[1] c_1[2] x y z fx fy fz c_1[3] 
4 2 1 0 0 1.24708 -1.24708 -1.24708 -0.000119487 0.000119958 0.000119373 0 
9 3 0 -1 1.48582 0.979114 -0.979114 -0.979114 -7.36826e-05 7.29484e-05 7.3969e-05 0.000494759 
14 3 0 1 1.48582 0.979114 -0.979114 -0.979114 -7.70083e-05 7.59889e-05 7.89192e-05 0.000499256 
3 2 1 0 0 -1.24708 -1.24708 1.24708 0.000116955 0.000116955 -0.000118774 0 
8 3 0 -1 1.48582 -0.979114 -0.979114 0.979114 7.27978e-05 7.27987e-05 -7.10676e-05 0.000489615 
13 3 0 1 1.48582 -0.979114 -0.979114 0.979114 8.52266e-05 8.52275e-05 -8.19098e-05 0.00049986 
5 2 1 0 0 -1.24708 1.24708 -1.24708 0.000119958 -0.000119487 0.000119372 0 
10 3 0 -1 1.48582 -0.979114 0.979114 -0.979114 7.29487e-05 -7.3683e-05 7.39702e-05 0.000494758 
15 3 0 1 1.48582 -0.979114 0.979114 -0.979114 7.59898e-05 -7.70092e-05 7.89211e-05 0.000499256 
1 1 6 0 0 -3.44261e-07 -3.43561e-07 1.55736e-06 0.000365171 0.000364428 -0.00182611 0 
2 2 1 0 0 1.24708 1.24708 1.24708 -0.000117418 -0.000117419 -0.000119708 0 
6 3 0 -1 0.329136 -5.20862e-08 -5.198e-08 5.22841e-06 -9.94309e-05 -9.92287e-05 -0.00146331 -0.00282137 
7 3 0 -1 1.48582 0.979114 0.979114 0.979114 -7.24068e-05 -7.24059e-05 -6.99591e-05 0.000490519 
11 3 0 1 0.329121 3.81347e-07 3.80572e-07 -7.19689e-06 -0.000265174 -0.000264635 0.0032864 0.00234866 
12 3 0 1 1.48582 0.979114 0.979114 0.979114 -8.44388e-05 -8.44378e-05 -8.0084e-05 0.00050038 
ITEM: TIMESTEP
140
ITEM: NUMBER OF ATOMS
15
ITEM: BOX BOUNDS ff ff ff
-5.0000000000000000e+02 5.0000000000000000e+02
-5.0000000000000000e+02 5.0000000000000000e+02
-5.0000000000000000e+02 5.0000000000000000e+02
ITEM: ATOMS id type q c_1[1] c_1[2] x y z fx fy fz c_1[3] 
4 2 1 0 0 1.24702 -1.24702 -1.24702 0.000139374 -0.000138226 -0.000138818 0 
9 3 0 -1 1.48604 0.979138 -0.979138 -0.979138 -2.24819e-05 2.04339e-05 2.18196e-05 -1.5322e-05 
14 3 0 1 1.48604 0.979138 -0.979138 -0.979138 -1.9697e-05 1.74733e-05 1.89301e-05 -1.80267e-05 
3 2 1 0 0 -1.24702 -1.24702 1.24702 -0.00013998 -0.000139982 0.000140027 0 
8 3 0 -1 1.48604 -0.979138 -0.979138 0.979138 2.29538e-05 2.29559e-05 -2.3226e-05 -1.68423e-05 
13 3 0 1 1.48604 -0.979138 -0.979138 0.979138 2.051e-05 2.05122e-05 -2.08469e-05 -1.92569e-05 
5 2 1 0 0 -1.24702 1.24702 -1.24702 -0.000138227 0.000139375 -0.00013882 0 
10 3 0 -1 1.48604 -0.979138 0.979138 -0.979138 2.04351e-05 -2.24831e-05 2.18228e-05 -1.5324e-05 
15 3 0 1 1.48604 -0.979138 0.979138 -0.979138 1.7475e-05 -1.96987e-05 1.89341e-05 -1.80283e-05 
1 1 6 0 0 -8.29583e-07 -8.27896e-07 2.85873e-07 0.000886902 0.000885099 -0.000475406 0 
2 2 1 0 0 1.24702 1.24702 1.24702 0.000138836 0.000138835 0.000137734 0 
6 3 0 -1 0.329125 1.69033e-07 1.6869e-07 -2.77363e-07 -0.00036324 -0.000362502 0.000200088 0.000682021 
7 3 0 -1 1.48604 0.979138 0.979138 0.979138 -2.17932e-05 -2.17911e-05 -2.00063e-05 -1.48826e-05 
11 3 0 1 0.329131 6.43513e-07 6.42205e-07 -4.72492e-07 -0.00052227 -0.000521209 0.000274683 -0.00119118 
12 3 0 1 1.48604 0.979138 0.979138 0.979138 -1.87961e-05 -1.87938e-05 -1.69161e-05 -1.77181e-05 
ITEM: TIMESTEP
150
ITEM: NUMBER OF ATOMS
15
ITEM: BOX BOUNDS ff ff ff
-5.0000000000000000e+02 5.0000000000000000e+02
-5.0000000000000000e+02 5.0000000000000000e+02
-5.0000000000000000e+02 5.0000000000000000e+02
ITEM: ATOMS id type q c_1[1] c_1[2] x y z fx fy fz c_1[3] 
4 2 1 0 0 1.24704 -1.24704 -1.24704 9.89483e-05 -9.79356e-05 -9.69298e-05 0 
9 3 0 -1 1.48604 0.979135 -0.979135 -0.979135 -3.77294e-06 1.70843e-06 -1.1362e-07 -1.95519e-06 
14 3 0 1 1.48604 0.979135 -0.979135 -0.979135 -4.80952e-06 3.103e-06 1.49128e-06 -4.30391e-07 
3 2 1 0 0 -1.24704 -1.24704 1.24704 -9.62968e-05 -9.62978e-05 9.79929e-05 0 
8 3 0 -1 1.48604 -0.979135 -0.979135 0.979135 -1.51414e-06 -1.51203e-06 -2.11913e-06 -1.0198e-06 
13 3 0 1 1.48604 -0.979136 -0.979136 0.979135 9.83495e-07 9.85222e-07 -4.05275e-06 1.10645e-06 
5 2 1 0 0 -1.24704 1.24704 -1.24704 -9.79366e-05 9.89494e-05 -9.69319e-05 0 
10 3 0 -1 1.48604 -0.979135 0.979135 -0.979135 1.71046e-06 -3.77497e-06 -1.0948e-07 -1.95618e-06 
15 3 0 1 1.48604 -0.979135 0.979135 -0.979135 3.10356e-06 -4.81008e-06 1.49357e-06 -4.32547e-07 
1 1 6 0 0 -7.33382e-07 -7.31891e-07 -2.14256e-06 0.000783527 0.000781934 0.00215789 0 
2 2 1 0 0 1.24704 1.24704 1.24704 9.52861e-05 9.5285e-05 9.59684e-05 0 
6 3 0 -1 0.329128 9.83202e-07 9.81204e-07 2.2714e-06 -0.000629953 -0.000628673 -0.0016143 -0.000575345 
7 3 0 -1 1.48604 0.979136 0.979136 0.979135 3.5051e-06 3.50722e-06 1.93924e-06 -4.73454e-08 
11 3 0 1 0.329124 -2.6635e-07 -2.65808e-07 -5.38122e-07 -0.000152344 -0.000152034 -0.000540421 0.000910833 
12 3 0 1 1.48604 0.979136 0.979136 0.979135 -4.35995e-07 -4.34268e-07 -1.79779e-06 3.22626e-06 
ITEM: TIMESTEP
160
ITEM: NUMBER OF ATOMS
15
ITEM: BOX BOUNDS ff ff ff
-5.0000000000000000e+02 5.0000000000000000e+02
-5.0000000000000000e+02 5.0000000000000000e+02
-5.0000000000000000e+02 5.0000000000000000e+02
ITEM: ATOMS id type q c_1[1] c_1[2] x y z fx fy fz c_1[3] 
4 2 1 0 0 1.24708 -1.24708 -1.24708 1.96272e-05 -1.92809e-05 -1.94252e-05 0 
9 3 0 -1 1.48604 0.979132 -0.979132 -0.979132 3.21048e-05 -3.25614e-05 -3.23344e-05 3.4296e-05 
14 3 0 1 1.48604 0.979132 -0.979132 -0.979132 3.28384e-05 -3.37163e-05 -3.35291e-05 3.32223e-05 
3 2 1 0 0 -1.24708 -1.24708 1.24708 -1.95817e-05 -1.95821e-05 1.97777e-05 0 
8 3 0 -1 1.48604 -0.979132 -0.979132 0.979132 -3.22334e-05 -3.2233e-05 3.19847e-05 3.41541e-05 
13 3 0 1 1.48604 -0.979132 -0.979132 0.979132 -3.34757e-05 -3.34748e-05 3.2771e-05 3.30104e-05 
5 2 1 0 0 -1.24708 1.24708 -1.24708 -1.92812e-05 1.96275e-05 -1.94259e-05 0 
10 3 0 -1 1.48604 -0.979132 0.979132 -0.979132 -3.25617e-05 3.21051e-05 -3.23344e-05 3.42947e-05 
15 3 0 1 1.48604 -0.979132 0.979132 -0.979132 -3.3715e-05 3.2837e-05 -3.35269e-05 3.32224e-05 
1 1 6 0 0 -2.71655e-07 -2.71103e-07 -3.48053e-07 0.00028979 0.000289201 0.000240989 0 
2 2 1 0 0 1.24708 1.24708 1.24708 1.92418e-05 1.92415e-05 1.90911e-05 0 
6 3 0 -1 0.329125 -5.82579e-07 -5.81394e-07 -7.62049e-07 0.000128611 0.00012835 0.000167353 0.000481392 
7 3 0 -1 1.48604 0.979132 0.979132 0.979132 3.18639e-05 3.18643e-05 3.20675e-05 3.5341e-05 
11 3 0 1 0.329128 8.47328e-07 8.45606e-07 7.44063e-07 -0.00041801 -0.00041716 -0.000408418 -0.000536163 
12 3 0 1 1.48604 0.979132 0.979132 0.979132 3.47809e-05 3.47818e-05 3.49597e-05 3.28808e-05 
ITEM: TIMESTEP
170
ITEM: NUMBER OF ATOMS
15
ITEM: BOX BOUNDS ff ff ff
-5.0000000000000000e+02 5.0000000000000000e+02
-5.0000000000000000e+02 5.0000000000000000e+02
-5.0000000000000000e+02 5.0000000000000000e+02
ITEM: ATOMS id type q c_1[1] c_1[2] x y z fx fy fz c_1[3] 
4 2 1 0 0 1.24708 -1.24708 -1.24708 2.05225e-05 -1.99458e-05 -1.99435e-05 0 
9 3 0 -1 1.48604 0.979133 -0.979133 -0.979133 3.14823e-05 -3.26109e-05 -3.26813e-05 3.16907e-05 
14 3 0 1 1.48604 0.979133 -0.979133 -0.979133 3.21278e-05 -3.32168e-05 -3.32698e-05 3.11427e-05 
3 2 1 0 0 -1.24708 -1.24708 1.24708 -1.99469e-05 -1.99475e-05 2.05236e-05 0 
8 3 0 -1 1.48604 -0.979133 -0.979133 0.979133 -3.28486e-05 -3.28474e-05 3.16275e-05 3.17087e-05 
13 3 0 1 1.48604 -0.979133 -0.979133 0.979133 -3.33015e-05 -3.33004e-05 3.21425e-05 3.12389e-05 
5 2 1 0 0 -1.24708 1.24708 -1.24708 -1.99464e-05 2.05231e-05 -1.99447e-05 0 
10 3 0 -1 1.48604 -0.979133 0.979133 -0.979133 -3.26101e-05 3.14815e-05 -3.26793e-05 3.16898e-05 
15 3 0 1 1.48604 -0.979133 0.979133 -0.979133 -3.32161e-05 3.2127e-05 -3.32679e-05 3.11418e-05 
1 1 6 0 0 -4.46995e-07 -4.46086e-07 -7.29339e-07 0.000479748 0.000478773 0.000649065 0 
2 2 1 0 0 1.24708 1.24708 1.24708 1.93803e-05 1.93797e-05 1.93796e-05 0 
6 3 0 -1 0.329126 2.63201e-07 2.62666e-07 3.37905e-07 -0.000255354 -0.000254835 -0.000385222 0.000170957 
7 3 0 -1 1.48604 0.979133 0.979133 0.979133 3.36545e-05 3.36556e-05 3.35629e-05 3.25697e-05 
11 3 0 1 0.329127 1.80404e-07 1.80038e-07 1.87474e-08 -0.000223737 -0.000223282 -0.00026327 -0.000184073 
12 3 0 1 1.48604 0.979133 0.979133 0.979133 3.40459e-05 3.4047e-05 3.39774e-05 3.21437e-05 
ITEM: TIMESTEP
180
ITEM: NUMBER OF ATOMS
15
ITEM: BOX BOUNDS ff ff ff
-5.0000000000000000e+02 5.0000000000000000e+02
-5.0000000000000000e+02 5.0000000000000000e+02
-5.0000000000000000e+02 5.0000000000000000e+02
ITEM: ATOMS id type q c_1[1] c_1[2] x y z fx fy fz c_1[3] 
4 2 1 0 0 1.24709 -1.24709 -1.24709 2.30041e-05 -2.31449e-05 -2.32964e-05 0 
9 3 0 -1 1.48605 0.979135 -0.979135 -0.979136 3.24606e-05 -3.22011e-05 -3.19367e-05 2.60811e-05 
14 3 0 1 1.48605 0.979135 -0.979135 -0.979136 3.15807e-05 -3.14367e-05 -3.12353e-05 2.67903e-05 
3 2 1 0 0 -1.24709 -1.24709 1.24709 -2.34535e-05 -2.34533e-05 2.31573e-05 0 
8 3 0 -1 1.48605 -0.979136 -0.979136 0.979136 -3.17344e-05 -3.17346e-05 3.22385e-05 2.59977e-05 
13 3 0 1 1.48605 -0.979136 -0.979136 0.979136 -3.12214e-05 -3.12215e-05 3.15506e-05 2.65314e-05 
5 2 1 0 0 -1.24709 1.24709 -1.24709 -2.31448e-05 2.3004e-05 -2.32961e-05 0 
10 3 0 -1 1.48605 -0.979135 0.979135 -0.979136 -3.22014e-05 3.24609e-05 -3.19372e-05 2.60811e-05 
15 3 0 1 1.48605 -0.979135 0.979135 -0.979136 -3.14365e-05 3.15805e-05 -3.12353e-05 2.67907e-05 
1 1 6 0 0 4.72741e-08 4.71785e-08 -7.83045e-09 -0.000137004 -0.000136726 -0.000251108 0 
2 2 1 0 0 1.24709 1.24709 1.24709 2.36113e-05 2.36114e-05 2.3456e-05 0 
6 3 0 -1 0.329127 -2.12338e-07 -2.11907e-07 -5.32954e-07 8.87388e-05 8.85588e-05 0.000181146 -0.000173831 
7 3 0 -1 1.48605 0.979136 0.979136 0.979136 3.14043e-05 3.1404e-05 3.16491e-05 2.59894e-05 
11 3 0 1 0.329126 1.68876e-07 1.68534e-07 1.60662e-07 4.80219e-05 4.79246e-05 6.92891e-05 0.000192104 
12 3 0 1 1.48605 0.979136 0.979136 0.979136 3.13741e-05 3.13739e-05 3.15587e-05 2.61295e-05 
ITEM: TIMESTEP
190
ITEM: NUMBER OF ATOMS
15
ITEM: BOX BOUNDS ff ff ff
-5.0000000000000000e+02 5.0000000000000000e+02
-5.0000000000000000e+02 5.0000000000000000e+02
-5.0000000000000000e+02 5.0000000000000000e+02
ITEM: ATOMS id type q c_1[1] c_1[2] x y z fx fy fz c_1[3] 
4 2 1 0 0 1.2471 -1.2471 -1.2471 3.60817e-05 -3.64933e-05 -3.65538e-05 0 
9 3 0 -1 1.48607 0.979149 -0.979149 -0.979149 2.2475e-05 -2.15428e-05 -2.15283e-05 9.02604e-06 
14 3 0 1 1.48607 0.979149 -0.979149 -0.979149 2.63249e-05 -2.56992e-05 -2.53722e-05 5.34548e-06 
3 2 1 0 0 -1.2471 -1.2471 1.2471 -3.66044e-05 -3.6604e-05 3.61211e-05 0 
8 3 0 -1 1.48607 -0.979149 -0.979149 0.979149 -2.19977e-05 -2.19987e-05 2.29333e-05 8.50889e-06 
13 3 0 1 1.48607 -0.979149 -0.979149 0.979149 -2.45724e-05 -2.4573e-05 2.55157e-05 5.81721e-06 
5 2 1 0 0 -1.2471 1.2471 -1.2471 -3.64929e-05 3.60813e-05 -3.6553e-05 0 