
units 		electron
newton		on
boundary        f f f

atom_style	electron

read_data  	data.${sname}
read_data  	data.ch4
  orthogonal box = (-500 -500 -500) to (500 500 500)
  1 by 2 by 2 MPI processor grid
  reading atoms ...
  15 atoms
  read_data CPU = 0.000705809 secs

pair_style      eff/cut 100.0
pair_coeff	* *

comm_modify	vel yes

compute         effTemp all temp/eff

compute         energies all pair eff/cut
variable        eke equal c_energies[1]
variable        epauli equal c_energies[2]
variable        ecoul equal c_energies[3]
variable        erres equal c_energies[4]

thermo          1
thermo_style    custom step etotal pe ke v_eke v_epauli v_ecoul v_erres

min_style	cg
compute         1 all property/atom spin eradius erforce
dump            2 all custom 10 ${sname}.min.lammpstrj id type q c_1[1] c_1[2] x y z fx fy fz c_1[3]
dump            2 all custom 10 ch4.min.lammpstrj id type q c_1[1] c_1[2] x y z fx fy fz c_1[3]
minimize	0 1e-6 2000 4000
WARNING: Using 'neigh_modify every 1 delay 0 check yes' setting during minimization (../min.cpp:168)
Neighbor list info ...
  update every 1 steps, delay 0 steps, check yes
  max neighbors/atom: 2000, page size: 100000
  master list distance cutoff = 102
  ghost atom cutoff = 102
  binsize = 51, bins = 20 20 20
  1 neighbor lists, perpetual/occasional/extra = 1 0 0
  (1) pair eff/cut, perpetual
      attributes: half, newton on
      pair build: half/bin/atomonly/newton
      stencil: half/bin/3d/newton
      bin: standard
Per MPI rank memory allocation (min/avg/max) = 6.635 | 6.729 | 7.01 Mbytes
Step TotEng PotEng KinEng v_eke v_epauli v_ecoul v_erres 
       0   -27.314082   -27.314082            0           24   0.10032353   -51.414406            0 
       1   -27.499639   -27.499639            0    24.170209   0.10057561   -51.770424            0 
       2   -27.683396   -27.683396            0    24.345642   0.10089134   -52.129929            0 
       3   -27.865331   -27.865331            0    24.526355   0.10127324   -52.492959            0 
       4   -28.045422   -28.045422            0    24.712409   0.10172411   -52.859555            0 
       5   -28.223645   -28.223645            0    24.903863   0.10224707   -53.229755            0 
       6   -28.399975   -28.399975            0    25.100779   0.10284557   -53.603599            0 
       7   -28.574385   -28.574385            0    25.303218   0.10352343   -53.981126            0 
       8   -28.746849   -28.746849            0    25.511241    0.1042849   -54.362374            0 
       9   -28.917337   -28.917337            0    25.724911   0.10513471   -54.747383            0 
      10   -29.085821   -29.085821            0    25.944289   0.10607815   -55.136189            0 
      11   -29.252272   -29.252272            0    26.169437    0.1071211    -55.52883            0 
      12    -29.41666    -29.41666            0    26.400414   0.10827014   -55.925344            0 
      13   -29.578957   -29.578957            0    26.637279   0.10953266   -56.325768            0 
      14   -29.739132   -29.739132            0    26.880089   0.11091698   -56.730139            0 
      15   -29.897159   -29.897159            0      27.1289   0.11243247   -57.138491            0 
      16    -30.05301    -30.05301            0    27.383761   0.11408972   -57.550861            0 
      17    -30.20666    -30.20666            0    27.644721   0.11590079   -57.967282            0 
      18   -30.358087   -30.358087            0    27.911822    0.1178794   -58.387788            0 
      19   -30.507273   -30.507273            0    28.185098   0.12004129   -58.812412            0 
      20   -30.654201   -30.654201            0     28.46458   0.12240454   -59.241185            0 
      21   -30.798862   -30.798862            0    28.750284   0.12499011   -59.674136            0 
      22   -30.941253   -30.941253            0    29.042218   0.12782235   -60.111293            0 
      23    -31.08138    -31.08138            0    29.340372   0.13092981   -60.552682            0 
      24   -31.219258   -31.219258            0    29.644719   0.13434614   -60.998324            0 
      25   -31.354917   -31.354917            0    29.955211   0.13811139   -61.448239            0 
      26   -31.488402   -31.488402            0    30.271767   0.14227357   -61.902442            0 
      27   -31.619779   -31.619779            0    30.594272   0.14689089   -62.360942            0 
      28   -31.749143   -31.749143            0    30.922563   0.15203466   -62.823741            0 
      29   -31.876621   -31.876621            0    31.256418   0.15779339   -63.290833            0 
      30   -32.002388   -32.002388            0    31.595534   0.16427855     -63.7622            0 
      31   -32.126674   -32.126674            0      31.9395    0.1716329   -64.237807            0 
      32   -32.249794   -32.249794            0    32.287764   0.18004289   -64.717601            0 
      33   -32.372172   -32.372172            0    32.639566    0.1897578   -65.201496            0 
      34   -32.494388   -32.494388            0    32.993857   0.20112027   -65.689365            0 
      35    -32.61725    -32.61725            0    33.349149   0.21461763   -66.181017            0 
      36   -32.741918   -32.741918            0     33.70327   0.23097319    -66.67616            0 
      37   -32.870111   -32.870111            0    34.052904    0.2513213   -67.174336            0 
      38   -33.004523   -33.004523            0    34.392682   0.27757717   -67.674782            0 
      39   -33.131935   -33.131935            0    34.671357    0.3085598   -68.111851            0 
      40   -33.247742   -33.247742            0    34.873666   0.34338547   -68.464794            0 
      41   -33.353579   -33.353579            0    35.007505    0.3823146   -68.743399            0 
      42   -33.450168   -33.450168            0    35.082159   0.42559662   -68.957924            0 
      43   -33.487463   -33.487463            0    35.100806   0.45978299   -69.048052            0 
      44   -33.573735   -33.573735            0    35.124122   0.51063753   -69.208494            0 
      45    -33.60209    -33.60209            0    35.117954    0.5148355    -69.23488            0 
      46   -33.656383   -33.656383            0    35.060859   0.57168807    -69.28893            0 
      47   -33.714086   -33.714086            0     35.02225   0.61018472   -69.346521            0 
      48   -33.764334   -33.764334            0    34.960457   0.67479504   -69.399586            0 
      49   -33.802082   -33.802082            0    34.931968   0.70285945    -69.43691            0 
      50   -33.839357   -33.839357            0    34.858231   0.77475021   -69.472338            0 
      51   -33.881675   -33.881675            0    34.798579   0.83394304   -69.514196            0 
      52   -33.907506   -33.907506            0    34.719959   0.91502024   -69.542485            0 
      53   -33.934648   -33.934648            0    34.676191   0.95978479   -69.570624            0 
      54   -33.951968   -33.951968            0    34.587871    1.0489261   -69.588765            0 
      55   -33.963915   -33.963915            0    34.551313    1.0859197   -69.601148            0 
      56   -33.971882   -33.971882            0    34.455002    1.1819466   -69.608831            0 
      57   -33.977332   -33.977332            0    34.416578    1.2214162   -69.615326            0 
      58   -33.979431   -33.979431            0    34.349014    1.2891692   -69.617614            0 
      59   -33.979959   -33.979959            0    34.352483    1.2850342   -69.617476            0 
      60    -33.98045    -33.98045            0    34.353377    1.2838283   -69.617655            0 
      61   -33.981728   -33.981728            0    34.365155    1.2681096   -69.614993            0 
      62   -33.989551   -33.989551            0    34.395681    1.2265985   -69.611831            0 
      63   -34.003151   -34.003151            0    34.494255    1.0937696   -69.591175            0 
      64   -34.003381   -34.003381            0    34.485254    1.0954681   -69.584103            0 
      65   -34.011587   -34.011587            0     34.21822    1.1471445   -69.376951            0 
      66   -34.011836   -34.011836            0    34.220124    1.1473585   -69.379319            0 
      67   -34.015651   -34.015651            0    34.498408    1.1504995   -69.664558            0 
      68   -34.021434   -34.021434            0    34.837595     1.154702   -70.013731            0 
      69   -34.023908   -34.023908            0    34.991203     1.160547   -70.175658            0 
      70   -34.026178   -34.026178            0    35.068116    1.1662748   -70.260569            0 
      71   -34.030134   -34.030134            0    34.997239    1.1731086   -70.200481            0 
      72   -34.034788   -34.034788            0    34.711544    1.1773646   -69.923696            0 
      73   -34.042758   -34.042758            0    34.272474    1.1830198   -69.498252            0 
      74   -34.046588   -34.046588            0     34.23241     1.182623    -69.46162            0 
      75   -34.053209   -34.053209            0    33.674423    1.1674901   -68.895122            0 
      76   -34.054742   -34.054742            0    33.594027    1.1643965   -68.813166            0 
      77   -34.056349   -34.056349            0    33.279401    1.1421046   -68.477855            0 
      78   -34.057645   -34.057645            0    33.142957    1.1305596   -68.331161            0 
      79   -34.061109   -34.061109            0    33.025813    1.0474621   -68.134384            0 
      80   -34.061571   -34.061571            0    33.040925    1.0374926   -68.139988            0 
      81   -34.062788   -34.062788            0    33.189634     1.010536   -68.262958            0 
      82   -34.064159   -34.064159            0    33.427625   0.98060074   -68.472385            0 
      83   -34.064285   -34.064285            0    33.456778   0.97799623   -68.499059            0 
      84   -34.064847   -34.064847            0     33.66074   0.97253474   -68.698121            0 
      85   -34.064966   -34.064966            0    33.700692   0.97211823   -68.737776            0 
      86   -34.065106   -34.065106            0    33.734346   0.97269776    -68.77215            0 
      87   -34.066304   -34.066304            0    33.884509   0.98906688   -68.939881            0 
      88   -34.066624   -34.066624            0    33.911197   0.99399565   -68.971817            0 
      89   -34.068006   -34.068006            0    33.726788    1.0197741   -68.814568            0 
      90   -34.068653   -34.068653            0    33.617038    1.0322256   -68.717916            0 
      91   -34.068987   -34.068987            0    33.546223    1.0385162   -68.653727            0 
      92   -34.069345   -34.069345            0    33.373713    1.0419572   -68.485015            0 
      93   -34.069545   -34.069545            0    33.275623    1.0434094   -68.388578            0 
      94   -34.069668   -34.069668            0    33.224698     1.041571   -68.335937            0 
      95   -34.069949   -34.069949            0    33.133276    1.0346004   -68.237825            0 
      96   -34.070619   -34.070619            0    32.942412    1.0171569   -68.030187            0 
      97    -34.07111    -34.07111            0    32.920064   0.99872631   -67.989901            0 
      98   -34.072161   -34.072161            0    32.903417    0.9535421    -67.92912            0 
      99   -34.072721   -34.072721            0    32.930449   0.93926976    -67.94244            0 
     100   -34.073684   -34.073684            0    33.223604   0.93262071   -68.229909            0 
     101   -34.073736   -34.073736            0     33.23903   0.93247209   -68.245238            0 
     102   -34.073766   -34.073766            0    33.245222   0.93293122   -68.251919            0 
     103   -34.073958   -34.073958            0    33.258196    0.9430219   -68.275175            0 
     104   -34.074193   -34.074193            0    33.271882   0.95627264   -68.302348            0 
     105   -34.074219   -34.074219            0    33.265166   0.95713605   -68.296521            0 
     106   -34.074239   -34.074239            0    33.236937   0.95827445   -68.269451            0 
     107   -34.074276   -34.074276            0    33.183503   0.96032524   -68.218104            0 
     108   -34.074277   -34.074277            0    33.182549    0.9603267   -68.217153            0 
     109   -34.074278   -34.074278            0    33.182505   0.96026189   -68.217044            0 
     110   -34.074352   -34.074352            0    33.204568    0.9502731   -68.229194            0 
     111   -34.074363   -34.074363            0    33.206874   0.94881473   -68.230052            0 
     112   -34.074367   -34.074367            0    33.204465   0.94844895   -68.227281            0 
     113   -34.074377   -34.074377            0    33.184638   0.94822099   -68.207236            0 
     114   -34.074398   -34.074398            0    33.141675   0.94787222   -68.163946            0 
     115   -34.074403   -34.074403            0     33.13351   0.94785558   -68.155768            0 
     116   -34.074405   -34.074405            0    33.131837   0.94791541   -68.154158            0 
     117   -34.074445   -34.074445            0    33.128244   0.94931043   -68.151999            0 
     118   -34.074467   -34.074467            0    33.127081   0.95011333   -68.151661            0 
     119   -34.074472   -34.074472            0    33.127098   0.95029419   -68.151865            0 
     120   -34.074473   -34.074473            0     33.12725   0.95027132   -68.151994            0 
     121   -34.074473   -34.074473            0    33.127922   0.95016768   -68.152563            0 
     122   -34.074475   -34.074475            0    33.133274    0.9492893   -68.157038            0 
     123   -34.074475   -34.074475            0    33.133641   0.94917005   -68.157286            0 
     124   -34.074476   -34.074476            0    33.134554   0.94859738   -68.157627            0 
     125   -34.074478   -34.074478            0    33.135681   0.94700671   -68.157166            0 
     126   -34.074479   -34.074479            0    33.135569   0.94689942   -68.156947            0 
     127   -34.074479   -34.074479            0    33.134292   0.94679806   -68.155569            0 
     128   -34.074479   -34.074479            0    33.132112   0.94672536   -68.153316            0 
     129   -34.074479   -34.074479            0    33.131027   0.94669978   -68.152205            0 
     130   -34.074479   -34.074479            0    33.129853   0.94672893   -68.151061            0 
     131   -34.074479   -34.074479            0    33.128933   0.94676799    -68.15018            0 
     132   -34.074479   -34.074479            0    33.127089   0.94686197    -68.14843            0 
     133   -34.074479   -34.074479            0    33.126439   0.94693811   -68.147856            0 
     134   -34.074479   -34.074479            0    33.126187   0.94699055   -68.147657            0 
     135   -34.074479   -34.074479            0    33.126131   0.94714425   -68.147755            0 
     136   -34.074479   -34.074479            0    33.126386   0.94717954   -68.148045            0 
     137    -34.07448    -34.07448            0    33.126805   0.94721577     -68.1485            0 
     138    -34.07448    -34.07448            0     33.12772   0.94725617   -68.149455            0 
     139    -34.07448    -34.07448            0    33.127933    0.9472636   -68.149676            0 
     140    -34.07448    -34.07448            0    33.128372   0.94727667   -68.150128            0 
     141    -34.07448    -34.07448            0    33.128435   0.94727833   -68.150193            0 
     142    -34.07448    -34.07448            0    33.128469    0.9472789   -68.150227            0 
     143    -34.07448    -34.07448            0    33.128559   0.94728034   -68.150319            0 
     144    -34.07448    -34.07448            0    33.128632   0.94728155   -68.150393            0 
     145    -34.07448    -34.07448            0    33.128684   0.94728274   -68.150446            0 
     146    -34.07448    -34.07448            0    33.128694   0.94728318   -68.150456            0 
     147    -34.07448    -34.07448            0      33.1287   0.94728407   -68.150464            0 
     148    -34.07448    -34.07448            0    33.128702     0.947286   -68.150467            0 
     149    -34.07448    -34.07448            0    33.128691   0.94728841   -68.150459            0 
     150    -34.07448    -34.07448            0    33.128658   0.94729291    -68.15043            0 
     151    -34.07448    -34.07448            0    33.128589    0.9473013    -68.15037            0 
     152    -34.07448    -34.07448            0    33.128539   0.94730726   -68.150326            0 
     153    -34.07448    -34.07448            0    33.128521   0.94730957    -68.15031            0 
     154    -34.07448    -34.07448            0    33.128514   0.94731078   -68.150304            0 
     155    -34.07448    -34.07448            0    33.128513   0.94731138   -68.150304            0 
     156    -34.07448    -34.07448            0    33.128518   0.94731278   -68.150311            0 
     157    -34.07448    -34.07448            0    33.128531   0.94731443   -68.150325            0 
     158    -34.07448    -34.07448            0    33.128541   0.94731555   -68.150336            0 
     159    -34.07448    -34.07448            0    33.128547   0.94731608   -68.150343            0 
     160    -34.07448    -34.07448            0     33.12855   0.94731637   -68.150346            0 
     161    -34.07448    -34.07448            0    33.128552   0.94731649   -68.150348            0 
     162    -34.07448    -34.07448            0    33.128553   0.94731655   -68.150349            0 
     163    -34.07448    -34.07448            0    33.128552   0.94731653   -68.150348            0 
     164    -34.07448    -34.07448            0    33.128552   0.94731649   -68.150348            0 
     165    -34.07448    -34.07448            0     33.12855   0.94731643   -68.150346            0 
     166    -34.07448    -34.07448            0     33.12855    0.9473164   -68.150346            0 
     167    -34.07448    -34.07448            0    33.128549   0.94731636   -68.150345            0 
     168    -34.07448    -34.07448            0    33.128548   0.94731632   -68.150344            0 
     169    -34.07448    -34.07448            0    33.128548   0.94731628   -68.150344            0 
     170    -34.07448    -34.07448            0    33.128546   0.94731617   -68.150341            0 
     171    -34.07448    -34.07448            0     33.12853   0.94731531   -68.150325            0 
     172    -34.07448    -34.07448            0    33.128527   0.94731511   -68.150322            0 
     173    -34.07448    -34.07448            0    33.128522   0.94731481   -68.150316            0 
     174    -34.07448    -34.07448            0    33.128521   0.94731474   -68.150315            0 
     175    -34.07448    -34.07448            0     33.12852   0.94731468   -68.150314            0 
     176    -34.07448    -34.07448            0     33.12852   0.94731465   -68.150314            0 
     177    -34.07448    -34.07448            0    33.128518   0.94731449   -68.150312            0 
     178    -34.07448    -34.07448            0    33.128517   0.94731442   -68.150311            0 
     179    -34.07448    -34.07448            0    33.128516   0.94731437    -68.15031            0 
     180    -34.07448    -34.07448            0    33.128515   0.94731431   -68.150309            0 
     181    -34.07448    -34.07448            0    33.128513   0.94731412   -68.150307            0 
     182    -34.07448    -34.07448            0    33.128511   0.94731399   -68.150305            0 
     183    -34.07448    -34.07448            0     33.12851    0.9473139   -68.150304            0 
     184    -34.07448    -34.07448            0    33.128509   0.94731382   -68.150303            0 
     185    -34.07448    -34.07448            0    33.128509   0.94731377   -68.150302            0 
     186    -34.07448    -34.07448            0    33.128407   0.94730425    -68.15019            0 
     187    -34.07448    -34.07448            0    33.128334   0.94729719   -68.150111            0 
     188    -34.07448    -34.07448            0     33.12831   0.94729452   -68.150084            0 
     189    -34.07448    -34.07448            0    33.128294   0.94729259   -68.150066            0 
     190    -34.07448    -34.07448            0    33.128289   0.94729167    -68.15006            0 
     191    -34.07448    -34.07448            0    33.128284   0.94729008   -68.150054            0 
     192    -34.07448    -34.07448            0    33.128283   0.94728892   -68.150051            0 
     193    -34.07448    -34.07448            0     33.12828   0.94728618   -68.150046            0 
     194    -34.07448    -34.07448            0    33.128277   0.94728301    -68.15004            0 
     195    -34.07448    -34.07448            0    33.128277   0.94728289    -68.15004            0 
     196    -34.07448    -34.07448            0    33.128277   0.94728271   -68.150039            0 
     197    -34.07448    -34.07448            0    33.128277   0.94728251   -68.150039            0 
     198    -34.07448    -34.07448            0    33.128276   0.94728222   -68.150038            0 
     199    -34.07448    -34.07448            0    33.128276   0.94728175   -68.150037            0 
     200    -34.07448    -34.07448            0    33.128275    0.9472816   -68.150037            0 
     201    -34.07448    -34.07448            0    33.128275    0.9472813   -68.150036            0 
     202    -34.07448    -34.07448            0    33.128274   0.94728078   -68.150034            0 
     203    -34.07448    -34.07448            0    33.128273   0.94728039   -68.150033            0 
     204    -34.07448    -34.07448            0    33.128273   0.94728029   -68.150033            0 
     205    -34.07448    -34.07448            0    33.128269   0.94727805   -68.150027            0 
     206    -34.07448    -34.07448            0    33.128266   0.94727647   -68.150023            0 
     207    -34.07448    -34.07448            0    33.128266   0.94727638   -68.150022            0 
     208    -34.07448    -34.07448            0    33.128264    0.9472754   -68.150019            0 
     209    -34.07448    -34.07448            0    33.128263   0.94727471   -68.150017            0 
     210    -34.07448    -34.07448            0    33.128262   0.94727463   -68.150017            0 
     211    -34.07448    -34.07448            0    33.128158   0.94723211    -68.14987            0 
     212    -34.07448    -34.07448            0    33.127945   0.94714609   -68.149571            0 
     213    -34.07448    -34.07448            0    33.127777    0.9470791   -68.149336            0 
     214    -34.07448    -34.07448            0    33.127754    0.9470713   -68.149305            0 
     215    -34.07448    -34.07448            0    33.127737   0.94706572   -68.149282            0 
     216    -34.07448    -34.07448            0    33.127726    0.9470634   -68.149269            0 
     217    -34.07448    -34.07448            0    33.127714   0.94706231   -68.149256            0 
     218    -34.07448    -34.07448            0    33.127704   0.94706237   -68.149247            0 
     219    -34.07448    -34.07448            0    33.127684   0.94706547   -68.149229            0 
     220    -34.07448    -34.07448            0     33.12767   0.94706819   -68.149218            0 
     221    -34.07448    -34.07448            0    33.127662   0.94707015   -68.149211            0 
     222    -34.07448    -34.07448            0    33.127661   0.94707067   -68.149211            0 
     223    -34.07448    -34.07448            0     33.12766   0.94707134   -68.149211            0 
     224    -34.07448    -34.07448            0    33.127659   0.94707198    -68.14921            0 
     225    -34.07448    -34.07448            0    33.127658   0.94707268    -68.14921            0 
     226    -34.07448    -34.07448            0    33.127656   0.94707386   -68.149209            0 
     227    -34.07448    -34.07448            0    33.127655    0.9470744   -68.149209            0 
     228    -34.07448    -34.07448            0    33.127654   0.94707519   -68.149208            0 
     229    -34.07448    -34.07448            0    33.127652   0.94707619   -68.149208            0 
     230    -34.07448    -34.07448            0    33.127651   0.94707687   -68.149207            0 
     231    -34.07448    -34.07448            0     33.12765   0.94707726   -68.149207            0 
     232    -34.07448    -34.07448            0    33.127646   0.94707996   -68.149205            0 
     233    -34.07448    -34.07448            0    33.127643   0.94708197   -68.149204            0 
     234    -34.07448    -34.07448            0    33.127642   0.94708231   -68.149204            0 
     235    -34.07448    -34.07448            0    33.127639   0.94708401   -68.149203            0 
     236    -34.07448    -34.07448            0    33.127637   0.94708532   -68.149202            0 
     237    -34.07448    -34.07448            0    33.127636   0.94708564   -68.149202            0 
     238    -34.07448    -34.07448            0    33.127597   0.94710899   -68.149186            0 
     239    -34.07448    -34.07448            0    33.127564   0.94712891   -68.149172            0 
     240    -34.07448    -34.07448            0    33.127563   0.94712899   -68.149172            0 
     241    -34.07448    -34.07448            0    33.127563   0.94712905   -68.149172            0 
     242    -34.07448    -34.07448            0    33.127563   0.94712911   -68.149172            0 
     243    -34.07448    -34.07448            0    33.127563   0.94712916   -68.149171            0 
     244    -34.07448    -34.07448            0    33.127562   0.94712922   -68.149171            0 
     245    -34.07448    -34.07448            0    33.127562   0.94712929   -68.149171            0 
     246    -34.07448    -34.07448            0    33.127562   0.94712939   -68.149171            0 
     247    -34.07448    -34.07448            0    33.127561   0.94712948    -68.14917            0 
     248    -34.07448    -34.07448            0    33.127561   0.94712957    -68.14917            0 
     249    -34.07448    -34.07448            0    33.127561   0.94712962    -68.14917            0 
     250    -34.07448    -34.07448            0     33.12756   0.94712968    -68.14917            0 
     251    -34.07448    -34.07448            0     33.12756   0.94712974    -68.14917            0 
     252    -34.07448    -34.07448            0     33.12756   0.94712979   -68.149169            0 
     253    -34.07448    -34.07448            0     33.12756   0.94712986   -68.149169            0 
     254    -34.07448    -34.07448            0    33.127559    0.9471299   -68.149169            0 
     255    -34.07448    -34.07448            0    33.127559   0.94713005   -68.149168            0 
     256    -34.07448    -34.07448            0    33.127558   0.94713015   -68.149168            0 
     257    -34.07448    -34.07448            0    33.127558   0.94713026   -68.149168            0 
     258    -34.07448    -34.07448            0    33.127557   0.94713042   -68.149167            0 
     259    -34.07448    -34.07448            0    33.127557   0.94713045   -68.149167            0 
     260    -34.07448    -34.07448            0    33.127555   0.94713091   -68.149165            0 
     261    -34.07448    -34.07448            0    33.127554   0.94713096   -68.149165            0 
     262    -34.07448    -34.07448            0    33.127554   0.94713107   -68.149165            0 
     263    -34.07448    -34.07448            0    33.127553   0.94713119   -68.149164            0 
     264    -34.07448    -34.07448            0    33.127552   0.94713136   -68.149163            0 
     265    -34.07448    -34.07448            0    33.127552   0.94713141   -68.149163            0 
     266    -34.07448    -34.07448            0    33.127552   0.94713147   -68.149163            0 
     267    -34.07448    -34.07448            0    33.127551    0.9471315   -68.149163            0 
     268    -34.07448    -34.07448            0    33.127551   0.94713154   -68.149162            0 
     269    -34.07448    -34.07448            0    33.127551   0.94713158   -68.149162            0 
     270    -34.07448    -34.07448            0    33.127551   0.94713161   -68.149162            0 
     271    -34.07448    -34.07448            0    33.127551   0.94713165   -68.149162            0 
     272    -34.07448    -34.07448            0     33.12755   0.94713171   -68.149162            0 
     273    -34.07448    -34.07448            0     33.12755   0.94713176   -68.149161            0 
     274    -34.07448    -34.07448            0     33.12755   0.94713181   -68.149161            0 
     275    -34.07448    -34.07448            0    33.127549   0.94713184   -68.149161            0 
     276    -34.07448    -34.07448            0    33.127549   0.94713187   -68.149161            0 
     277    -34.07448    -34.07448            0    33.127549    0.9471319   -68.149161            0 
     278    -34.07448    -34.07448            0    33.127549   0.94713192    -68.14916            0 
     279    -34.07448    -34.07448            0    33.127549   0.94713195    -68.14916            0 
     280    -34.07448    -34.07448            0    33.127548     0.947132    -68.14916            0 
     281    -34.07448    -34.07448            0    33.127548   0.94713204    -68.14916            0 
     282    -34.07448    -34.07448            0    33.127548   0.94713208   -68.149159            0 
     283    -34.07448    -34.07448            0    33.127548    0.9471321   -68.149159            0 
     284    -34.07448    -34.07448            0    33.127547   0.94713213   -68.149159            0 
     285    -34.07448    -34.07448            0    33.127547   0.94713215   -68.149159            0 
     286    -34.07448    -34.07448            0    33.127547   0.94713217   -68.149159            0 
     287    -34.07448    -34.07448            0    33.127547    0.9471322   -68.149159            0 
     288    -34.07448    -34.07448            0    33.127547   0.94713223   -68.149158            0 
     289    -34.07448    -34.07448            0    33.127546   0.94713226   -68.149158            0 
     290    -34.07448    -34.07448            0    33.127546   0.94713231   -68.149158            0 
     291    -34.07448    -34.07448            0    33.127546   0.94713233   -68.149158            0 
     292    -34.07448    -34.07448            0    33.127545   0.94713238   -68.149157            0 
     293    -34.07448    -34.07448            0    33.127545    0.9471324   -68.149157            0 
     294    -34.07448    -34.07448            0    33.127545   0.94713242   -68.149157            0 
     295    -34.07448    -34.07448            0    33.127545   0.94713247   -68.149157            0 
     296    -34.07448    -34.07448            0    33.127544   0.94713248   -68.149157            0 
     297    -34.07448    -34.07448            0    33.127544   0.94713257   -68.149156            0 
     298    -34.07448    -34.07448            0    33.127543   0.94713262   -68.149155            0 
     299    -34.07448    -34.07448            0    33.127543   0.94713265   -68.149155            0 
     300    -34.07448    -34.07448            0    33.127543   0.94713266   -68.149155            0 
     301    -34.07448    -34.07448            0    33.127542   0.94713268   -68.149155            0 
     302    -34.07448    -34.07448            0    33.127542   0.94713269   -68.149155            0 
     303    -34.07448    -34.07448            0    33.127542   0.94713271   -68.149155            0 
     304    -34.07448    -34.07448            0    33.127542   0.94713272   -68.149154            0 
     305    -34.07448    -34.07448            0    33.127542   0.94713273   -68.149154            0 
     306    -34.07448    -34.07448            0    33.127542   0.94713275   -68.149154            0 
     307    -34.07448    -34.07448            0    33.127541   0.94713277   -68.149154            0 
     308    -34.07448    -34.07448            0    33.127541   0.94713279   -68.149154            0 
     309    -34.07448    -34.07448            0    33.127541   0.94713282   -68.149153            0 
     310    -34.07448    -34.07448            0    33.127541   0.94713283   -68.149153            0 
     311    -34.07448    -34.07448            0     33.12754   0.94713284   -68.149153            0 
     312    -34.07448    -34.07448            0     33.12754   0.94713286   -68.149153            0 
     313    -34.07448    -34.07448            0     33.12754   0.94713288   -68.149153            0 
     314    -34.07448    -34.07448            0     33.12754   0.94713289   -68.149152            0 
     315    -34.07448    -34.07448            0     33.12754    0.9471329   -68.149152            0 
     316    -34.07448    -34.07448            0     33.12754   0.94713291   -68.149152            0 
     317    -34.07448    -34.07448            0    33.127539   0.94713292   -68.149152            0 
     318    -34.07448    -34.07448            0    33.127539   0.94713293   -68.149152            0 
     319    -34.07448    -34.07448            0    33.127539   0.94713295   -68.149152            0 
     320    -34.07448    -34.07448            0    33.127539   0.94713297   -68.149151            0 
     321    -34.07448    -34.07448            0    33.127538   0.94713298   -68.149151            0 
     322    -34.07448    -34.07448            0    33.127538   0.94713299   -68.149151            0 
     323    -34.07448    -34.07448            0    33.127538   0.94713299   -68.149151            0 
     324    -34.07448    -34.07448            0    33.127538   0.94713301   -68.149151            0 
     325    -34.07448    -34.07448            0    33.127538   0.94713302    -68.14915            0 
     326    -34.07448    -34.07448            0    33.127537   0.94713303    -68.14915            0 
     327    -34.07448    -34.07448            0    33.127537   0.94713304    -68.14915            0 
     328    -34.07448    -34.07448            0    33.127537   0.94713304    -68.14915            0 
     329    -34.07448    -34.07448            0    33.127537   0.94713305    -68.14915            0 
     330    -34.07448    -34.07448            0    33.127537   0.94713306    -68.14915            0 
     331    -34.07448    -34.07448            0    33.127536   0.94713307   -68.149149            0 
     332    -34.07448    -34.07448            0    33.127536   0.94713308   -68.149149            0 
     333    -34.07448    -34.07448            0    33.127536   0.94713308   -68.149149            0 
     334    -34.07448    -34.07448            0    33.127536   0.94713309   -68.149149            0 
     335    -34.07448    -34.07448            0    33.127536   0.94713309   -68.149149            0 
     336    -34.07448    -34.07448            0    33.127536    0.9471331   -68.149148            0 
     337    -34.07448    -34.07448            0    33.127536    0.9471331   -68.149148            0 
     338    -34.07448    -34.07448            0    33.127535   0.94713311   -68.149148            0 
     339    -34.07448    -34.07448            0    33.127535   0.94713311   -68.149148            0 
     340    -34.07448    -34.07448            0    33.127535   0.94713311   -68.149148            0 
     341    -34.07448    -34.07448            0    33.127535   0.94713312   -68.149148            0 
     342    -34.07448    -34.07448            0    33.127535   0.94713313   -68.149147            0 
     343    -34.07448    -34.07448            0    33.127535   0.94713313   -68.149147            0 
     344    -34.07448    -34.07448            0    33.127534   0.94713313   -68.149147            0 
     345    -34.07448    -34.07448            0    33.127534   0.94713314   -68.149147            0 
     346    -34.07448    -34.07448            0    33.127534   0.94713314   -68.149147            0 
     347    -34.07448    -34.07448            0    33.127534   0.94713314   -68.149147            0 
     348    -34.07448    -34.07448            0    33.127534   0.94713314   -68.149147            0 
     349    -34.07448    -34.07448            0    33.127534   0.94713315   -68.149146            0 
     350    -34.07448    -34.07448            0    33.127533   0.94713315   -68.149146            0 
     351    -34.07448    -34.07448            0    33.127533   0.94713315   -68.149146            0 
     352    -34.07448    -34.07448            0    33.127533   0.94713315   -68.149146            0 
     353    -34.07448    -34.07448            0    33.127533   0.94713315   -68.149146            0 
     354    -34.07448    -34.07448            0    33.127533   0.94713316   -68.149145            0 
     355    -34.07448    -34.07448            0    33.127532   0.94713316   -68.149145            0 
     356    -34.07448    -34.07448            0    33.127532   0.94713316   -68.149145            0 
     357    -34.07448    -34.07448            0    33.127532   0.94713316   -68.149145            0 
     358    -34.07448    -34.07448            0    33.127532   0.94713316   -68.149145            0 
     359    -34.07448    -34.07448            0    33.127532   0.94713315   -68.149145            0 
     360    -34.07448    -34.07448            0    33.127532   0.94713315   -68.149145            0 
     361    -34.07448    -34.07448            0    33.127532   0.94713315   -68.149144            0 
     362    -34.07448    -34.07448            0    33.127532   0.94713315   -68.149144            0 
     363    -34.07448    -34.07448            0    33.127531   0.94713315   -68.149144            0 
     364    -34.07448    -34.07448            0    33.127531   0.94713315   -68.149144            0 
     365    -34.07448    -34.07448            0    33.127531   0.94713315   -68.149144            0 
     366    -34.07448    -34.07448            0    33.127531   0.94713315   -68.149144            0 
     367    -34.07448    -34.07448            0    33.127531   0.94713315   -68.149144            0 
     368    -34.07448    -34.07448            0    33.127531   0.94713314   -68.149143            0 
     369    -34.07448    -34.07448            0     33.12753   0.94713314   -68.149143            0 
     370    -34.07448    -34.07448            0     33.12753   0.94713314   -68.149143            0 
     371    -34.07448    -34.07448            0     33.12753   0.94713314   -68.149143            0 
     372    -34.07448    -34.07448            0     33.12753   0.94713313   -68.149143            0 
     373    -34.07448    -34.07448            0     33.12753   0.94713313   -68.149143            0 
     374    -34.07448    -34.07448            0     33.12753   0.94713313   -68.149142            0 
     375    -34.07448    -34.07448            0     33.12753   0.94713312   -68.149142            0 
     376    -34.07448    -34.07448            0    33.127529   0.94713312   -68.149142            0 
     377    -34.07448    -34.07448            0    33.127529   0.94713311   -68.149142            0 
     378    -34.07448    -34.07448            0    33.127529   0.94713311   -68.149142            0 
     379    -34.07448    -34.07448            0    33.127529   0.94713311   -68.149142            0 
     380    -34.07448    -34.07448            0    33.127529    0.9471331   -68.149142            0 
     381    -34.07448    -34.07448            0    33.127529    0.9471331   -68.149141            0 
     382    -34.07448    -34.07448            0    33.127528   0.94713309   -68.149141            0 
     383    -34.07448    -34.07448            0    33.127528   0.94713309   -68.149141            0 
     384    -34.07448    -34.07448            0    33.127528   0.94713308   -68.149141            0 
     385    -34.07448    -34.07448            0    33.127528   0.94713308   -68.149141            0 
     386    -34.07448    -34.07448            0    33.127528   0.94713307   -68.149141            0 
     387    -34.07448    -34.07448            0    33.127528   0.94713306    -68.14914            0 
     388    -34.07448    -34.07448            0    33.127527   0.94713305    -68.14914            0 
     389    -34.07448    -34.07448            0    33.127527   0.94713305    -68.14914            0 
     390    -34.07448    -34.07448            0    33.127527   0.94713304    -68.14914            0 
     391    -34.07448    -34.07448            0    33.127527   0.94713303    -68.14914            0 
     392    -34.07448    -34.07448            0    33.127527   0.94713303    -68.14914            0 
     393    -34.07448    -34.07448            0    33.127527   0.94713302   -68.149139            0 
     394    -34.07448    -34.07448            0    33.127526     0.947133   -68.149139            0 
     395    -34.07448    -34.07448            0    33.127526     0.947133   -68.149139            0 
     396    -34.07448    -34.07448            0    33.127526     0.947133   -68.149139            0 
     397    -34.07448    -34.07448            0    33.127526   0.94713299   -68.149139            0 
     398    -34.07448    -34.07448            0    33.127526   0.94713299   -68.149139            0 
     399    -34.07448    -34.07448            0    33.127526   0.94713298   -68.149138            0 
     400    -34.07448    -34.07448            0    33.127526   0.94713297   -68.149138            0 
     401    -34.07448    -34.07448            0    33.127525   0.94713296   -68.149138            0 
     402    -34.07448    -34.07448            0    33.127525   0.94713295   -68.149138            0 
     403    -34.07448    -34.07448            0    33.127525   0.94713295   -68.149138            0 
     404    -34.07448    -34.07448            0    33.127525   0.94713294   -68.149138            0 
     405    -34.07448    -34.07448            0    33.127525   0.94713293   -68.149138            0 
     406    -34.07448    -34.07448            0    33.127525   0.94713293   -68.149138            0 
     407    -34.07448    -34.07448            0    33.127525   0.94713292   -68.149138            0 
     408    -34.07448    -34.07448            0    33.127525   0.94713291   -68.149137            0 
     409    -34.07448    -34.07448            0    33.127525   0.94713291   -68.149137            0 
     410    -34.07448    -34.07448            0    33.127524   0.94713289   -68.149137            0 
     411    -34.07448    -34.07448            0    33.127524   0.94713288   -68.149137            0 
     412    -34.07448    -34.07448            0    33.127524   0.94713287   -68.149137            0 
     413    -34.07448    -34.07448            0    33.127524   0.94713286   -68.149137            0 
     414    -34.07448    -34.07448            0    33.127524   0.94713285   -68.149136            0 
     415    -34.07448    -34.07448            0    33.127524   0.94713284   -68.149136            0 
     416    -34.07448    -34.07448            0    33.127524   0.94713283   -68.149136            0 
     417    -34.07448    -34.07448            0    33.127523   0.94713282   -68.149136            0 
     418    -34.07448    -34.07448            0    33.127523   0.94713281   -68.149136            0 
     419    -34.07448    -34.07448            0    33.127521   0.94713266   -68.149134            0 
     420    -34.07448    -34.07448            0    33.127521   0.94713265   -68.149134            0 
     421    -34.07448    -34.07448            0    33.127521   0.94713263   -68.149133            0 
     422    -34.07448    -34.07448            0    33.127521   0.94713262   -68.149133            0 
     423    -34.07448    -34.07448            0    33.127521   0.94713259   -68.149133            0 
     424    -34.07448    -34.07448            0     33.12752   0.94713256   -68.149133            0 
     425    -34.07448    -34.07448            0     33.12752   0.94713254   -68.149132            0 
     426    -34.07448    -34.07448            0     33.12752   0.94713253   -68.149132            0 
     427    -34.07448    -34.07448            0     33.12752   0.94713252   -68.149132            0 
     428    -34.07448    -34.07448            0     33.12752    0.9471325   -68.149132            0 
     429    -34.07448    -34.07448            0     33.12752   0.94713249   -68.149132            0 
     430    -34.07448    -34.07448            0    33.127519   0.94713247   -68.149132            0 
     431    -34.07448    -34.07448            0    33.127519   0.94713244   -68.149131            0 
     432    -34.07448    -34.07448            0    33.127519   0.94713241   -68.149131            0 
     433    -34.07448    -34.07448            0    33.127518   0.94713235    -68.14913            0 
     434    -34.07448    -34.07448            0    33.127518   0.94713234    -68.14913            0 
     435    -34.07448    -34.07448            0    33.127518   0.94713232    -68.14913            0 
     436    -34.07448    -34.07448            0    33.127518   0.94713229    -68.14913            0 
     437    -34.07448    -34.07448            0    33.127518   0.94713227    -68.14913            0 
     438    -34.07448    -34.07448            0    33.127517   0.94713224   -68.149129            0 
     439    -34.07448    -34.07448            0    33.127517   0.94713219   -68.149129            0 
     440    -34.07448    -34.07448            0    33.127517   0.94713218   -68.149129            0 
     441    -34.07448    -34.07448            0    33.127517   0.94713217   -68.149129            0 
     442    -34.07448    -34.07448            0    33.127517   0.94713215   -68.149129            0 
     443    -34.07448    -34.07448            0    33.127517   0.94713214   -68.149128            0 
     444    -34.07448    -34.07448            0    33.127516   0.94713212   -68.149128            0 
     445    -34.07448    -34.07448            0    33.127516    0.9471321   -68.149128            0 
     446    -34.07448    -34.07448            0    33.127516   0.94713208   -68.149128            0 
     447    -34.07448    -34.07448            0    33.127516   0.94713206   -68.149128            0 
     448    -34.07448    -34.07448            0    33.127516   0.94713205   -68.149128            0 
     449    -34.07448    -34.07448            0    33.127516   0.94713204   -68.149128            0 
     450    -34.07448    -34.07448            0    33.127516   0.94713202   -68.149127            0 
     451    -34.07448    -34.07448            0    33.127515   0.94713198   -68.149127            0 
     452    -34.07448    -34.07448            0    33.127515   0.94713197   -68.149127            0 
     453    -34.07448    -34.07448            0    33.127515   0.94713196   -68.149127            0 
     454    -34.07448    -34.07448            0    33.127515   0.94713194   -68.149127            0 
     455    -34.07448    -34.07448            0    33.127515   0.94713193   -68.149127            0 
     456    -34.07448    -34.07448            0    33.127515   0.94713191   -68.149127            0 
     457    -34.07448    -34.07448            0    33.127515   0.94713188   -68.149126            0 
     458    -34.07448    -34.07448            0    33.127515   0.94713186   -68.149126            0 
     459    -34.07448    -34.07448            0    33.127514   0.94713185   -68.149126            0 
     460    -34.07448    -34.07448            0    33.127514   0.94713184   -68.149126            0 
     461    -34.07448    -34.07448            0    33.127514   0.94713182   -68.149126            0 
     462    -34.07448    -34.07448            0    33.127514   0.94713181   -68.149126            0 
     463    -34.07448    -34.07448            0    33.127514   0.94713179   -68.149126            0 
     464    -34.07448    -34.07448            0    33.127514   0.94713177   -68.149125            0 
     465    -34.07448    -34.07448            0    33.127514   0.94713176   -68.149125            0 
     466    -34.07448    -34.07448            0    33.127514   0.94713173   -68.149125            0 
     467    -34.07448    -34.07448            0    33.127514   0.94713172   -68.149125            0 
     468    -34.07448    -34.07448            0    33.127513    0.9471317   -68.149125            0 
     469    -34.07448    -34.07448            0    33.127513   0.94713168   -68.149125            0 
     470    -34.07448    -34.07448            0    33.127513   0.94713166   -68.149125            0 
     471    -34.07448    -34.07448            0    33.127513   0.94713164   -68.149124            0 
     472    -34.07448    -34.07448            0    33.127513   0.94713163   -68.149124            0 
     473    -34.07448    -34.07448            0    33.127513   0.94713161   -68.149124            0 
     474    -34.07448    -34.07448            0    33.127513    0.9471316   -68.149124            0 
     475    -34.07448    -34.07448            0    33.127513   0.94713159   -68.149124            0 
     476    -34.07448    -34.07448            0    33.127513   0.94713158   -68.149124            0 
     477    -34.07448    -34.07448            0    33.127513   0.94713157   -68.149124            0 
     478    -34.07448    -34.07448            0    33.127512   0.94713156   -68.149124            0 
     479    -34.07448    -34.07448            0    33.127512   0.94713154   -68.149124            0 
     480    -34.07448    -34.07448            0    33.127512   0.94713153   -68.149124            0 
     481    -34.07448    -34.07448            0    33.127512   0.94713153   -68.149123            0 
     482    -34.07448    -34.07448            0    33.127512    0.9471315   -68.149123            0 
     483    -34.07448    -34.07448            0    33.127512   0.94713148   -68.149123            0 
     484    -34.07448    -34.07448            0    33.127512   0.94713146   -68.149123            0 
     485    -34.07448    -34.07448            0    33.127512   0.94713144   -68.149123            0 
     486    -34.07448    -34.07448            0    33.127512   0.94713142   -68.149123            0 
     487    -34.07448    -34.07448            0    33.127511   0.94713139   -68.149123            0 
     488    -34.07448    -34.07448            0    33.127511   0.94713138   -68.149122            0 
     489    -34.07448    -34.07448            0    33.127511   0.94713137   -68.149122            0 
     490    -34.07448    -34.07448            0    33.127511   0.94713134   -68.149122            0 
     491    -34.07448    -34.07448            0    33.127511   0.94713133   -68.149122            0 
     492    -34.07448    -34.07448            0    33.127511   0.94713129   -68.149122            0 
     493    -34.07448    -34.07448            0    33.127511   0.94713125   -68.149122            0 
     494    -34.07448    -34.07448            0     33.12751    0.9471312   -68.149121            0 
     495    -34.07448    -34.07448            0     33.12751   0.94713111    -68.14912            0 
     496    -34.07448    -34.07448            0     33.12751   0.94713109    -68.14912            0 
     497    -34.07448    -34.07448            0    33.127506   0.94713048   -68.149116            0 
     498    -34.07448    -34.07448            0    33.127504   0.94713014   -68.149114            0 
     499    -34.07448    -34.07448            0    33.127502   0.94712985   -68.149112            0 
     500    -34.07448    -34.07448            0    33.127502   0.94712981   -68.149112            0 
     501    -34.07448    -34.07448            0    33.127501   0.94712961    -68.14911            0 
     502    -34.07448    -34.07448            0    33.127501    0.9471296    -68.14911            0 
     503    -34.07448    -34.07448            0    33.127501   0.94712958    -68.14911            0 
     504    -34.07448    -34.07448            0    33.127501   0.94712957    -68.14911            0 
     505    -34.07448    -34.07448            0    33.127501   0.94712955    -68.14911            0 
     506    -34.07448    -34.07448            0    33.127501   0.94712953    -68.14911            0 
     507    -34.07448    -34.07448            0      33.1275   0.94712951    -68.14911            0 
     508    -34.07448    -34.07448            0      33.1275   0.94712949   -68.149109            0 
     509    -34.07448    -34.07448            0      33.1275   0.94712946   -68.149109            0 
     510    -34.07448    -34.07448            0      33.1275   0.94712944   -68.149109            0 
     511    -34.07448    -34.07448            0      33.1275   0.94712943   -68.149109            0 
     512    -34.07448    -34.07448            0      33.1275   0.94712941   -68.149109            0 
     513    -34.07448    -34.07448            0      33.1275   0.94712939   -68.149109            0 
     514    -34.07448    -34.07448            0      33.1275   0.94712936   -68.149109            0 
     515    -34.07448    -34.07448            0      33.1275   0.94712935   -68.149109            0 
     516    -34.07448    -34.07448            0      33.1275   0.94712934   -68.149109            0 
     517    -34.07448    -34.07448            0      33.1275   0.94712933   -68.149109            0 
     518    -34.07448    -34.07448            0      33.1275   0.94712931   -68.149108            0 
     519    -34.07448    -34.07448            0    33.127499   0.94712929   -68.149108            0 
     520    -34.07448    -34.07448            0    33.127499   0.94712926   -68.149108            0 
     521    -34.07448    -34.07448            0    33.127499   0.94712924   -68.149108            0 
     522    -34.07448    -34.07448            0    33.127499   0.94712923   -68.149108            0 
     523    -34.07448    -34.07448            0    33.127499   0.94712921   -68.149108            0 
     524    -34.07448    -34.07448            0    33.127499   0.94712919   -68.149108            0 
     525    -34.07448    -34.07448            0    33.127499   0.94712918   -68.149108            0 
     526    -34.07448    -34.07448            0    33.127499   0.94712916   -68.149108            0 
     527    -34.07448    -34.07448            0    33.127499   0.94712915   -68.149108            0 
     528    -34.07448    -34.07448            0    33.127499   0.94712914   -68.149108            0 
     529    -34.07448    -34.07448            0    33.127499   0.94712912   -68.149107            0 
     530    -34.07448    -34.07448            0    33.127498   0.94712909   -68.149107            0 
     531    -34.07448    -34.07448            0    33.127498   0.94712908   -68.149107            0 
     532    -34.07448    -34.07448            0    33.127498   0.94712905   -68.149107            0 
     533    -34.07448    -34.07448            0    33.127498   0.94712903   -68.149107            0 
     534    -34.07448    -34.07448            0    33.127498   0.94712901   -68.149107            0 
     535    -34.07448    -34.07448            0    33.127498     0.947129   -68.149107            0 
     536    -34.07448    -34.07448            0    33.127498   0.94712898   -68.149107            0 
     537    -34.07448    -34.07448            0    33.127498   0.94712897   -68.149107            0 
     538    -34.07448    -34.07448            0    33.127498   0.94712894   -68.149106            0 
     539    -34.07448    -34.07448            0    33.127498   0.94712893   -68.149106            0 
     540    -34.07448    -34.07448            0    33.127498   0.94712891   -68.149106            0 
     541    -34.07448    -34.07448            0    33.127498    0.9471289   -68.149106            0 
     542    -34.07448    -34.07448            0    33.127497   0.94712887   -68.149106            0 
     543    -34.07448    -34.07448            0    33.127497   0.94712883   -68.149106            0 
     544    -34.07448    -34.07448            0    33.127497   0.94712877   -68.149105            0 
     545    -34.07448    -34.07448            0    33.127497   0.94712876   -68.149105            0 
     546    -34.07448    -34.07448            0    33.127497   0.94712874   -68.149105            0 
     547    -34.07448    -34.07448            0    33.127497   0.94712873   -68.149105            0 
     548    -34.07448    -34.07448            0    33.127497   0.94712871   -68.149105            0 
     549    -34.07448    -34.07448            0    33.127497   0.94712868   -68.149105            0 
     550    -34.07448    -34.07448            0    33.127497   0.94712866   -68.149105            0 
     551    -34.07448    -34.07448            0    33.127496   0.94712865   -68.149105            0 
     552    -34.07448    -34.07448            0    33.127496   0.94712864   -68.149105            0 
     553    -34.07448    -34.07448            0    33.127496   0.94712862   -68.149105            0 
     554    -34.07448    -34.07448            0    33.127496   0.94712861   -68.149105            0 
     555    -34.07448    -34.07448            0    33.127496   0.94712859   -68.149104            0 
     556    -34.07448    -34.07448            0    33.127496   0.94712858   -68.149104            0 
     557    -34.07448    -34.07448            0    33.127496   0.94712856   -68.149104            0 
     558    -34.07448    -34.07448            0    33.127496   0.94712855   -68.149104            0 
     559    -34.07448    -34.07448            0    33.127496   0.94712853   -68.149104            0 
     560    -34.07448    -34.07448            0    33.127496   0.94712851   -68.149104            0 
     561    -34.07448    -34.07448            0    33.127496   0.94712848   -68.149104            0 
     562    -34.07448    -34.07448            0    33.127496   0.94712847   -68.149104            0 
     563    -34.07448    -34.07448            0    33.127496   0.94712845   -68.149104            0 
     564    -34.07448    -34.07448            0    33.127495   0.94712843   -68.149104            0 
     565    -34.07448    -34.07448            0    33.127495   0.94712841   -68.149103            0 
     566    -34.07448    -34.07448            0    33.127495   0.94712839   -68.149103            0 
     567    -34.07448    -34.07448            0    33.127495   0.94712837   -68.149103            0 
     568    -34.07448    -34.07448            0    33.127495   0.94712835   -68.149103            0 
     569    -34.07448    -34.07448            0    33.127495   0.94712834   -68.149103            0 
     570    -34.07448    -34.07448            0    33.127495   0.94712832   -68.149103            0 
     571    -34.07448    -34.07448            0    33.127495   0.94712831   -68.149103            0 
     572    -34.07448    -34.07448            0    33.127495    0.9471283   -68.149103            0 
     573    -34.07448    -34.07448            0    33.127495   0.94712829   -68.149103            0 
     574    -34.07448    -34.07448            0    33.127495   0.94712827   -68.149103            0 
     575    -34.07448    -34.07448            0    33.127495   0.94712825   -68.149103            0 
     576    -34.07448    -34.07448            0    33.127494   0.94712823   -68.149102            0 
     577    -34.07448    -34.07448            0    33.127494   0.94712821   -68.149102            0 
     578    -34.07448    -34.07448            0    33.127494   0.94712819   -68.149102            0 
     579    -34.07448    -34.07448            0    33.127494   0.94712817   -68.149102            0 
     580    -34.07448    -34.07448            0    33.127494   0.94712815   -68.149102            0 
     581    -34.07448    -34.07448            0    33.127494   0.94712813   -68.149102            0 
     582    -34.07448    -34.07448            0    33.127494   0.94712812   -68.149102            0 
     583    -34.07448    -34.07448            0    33.127494   0.94712809   -68.149102            0 
     584    -34.07448    -34.07448            0    33.127494   0.94712806   -68.149101            0 
     585    -34.07448    -34.07448            0    33.127494   0.94712805   -68.149101            0 
     586    -34.07448    -34.07448            0    33.127494   0.94712803   -68.149101            0 
     587    -34.07448    -34.07448            0    33.127493   0.94712801   -68.149101            0 
     588    -34.07448    -34.07448            0    33.127493   0.94712798   -68.149101            0 
     589    -34.07448    -34.07448            0    33.127493   0.94712794   -68.149101            0 
     590    -34.07448    -34.07448            0    33.127493   0.94712788     -68.1491            0 
     591    -34.07448    -34.07448            0    33.127493   0.94712787     -68.1491            0 
     592    -34.07448    -34.07448            0    33.127493   0.94712785     -68.1491            0 
     593    -34.07448    -34.07448            0    33.127493   0.94712784     -68.1491            0 
     594    -34.07448    -34.07448            0    33.127493   0.94712782     -68.1491            0 
     595    -34.07448    -34.07448            0    33.127493    0.9471278     -68.1491            0 
     596    -34.07448    -34.07448            0    33.127492   0.94712778     -68.1491            0 
     597    -34.07448    -34.07448            0    33.127492   0.94712776     -68.1491            0 
     598    -34.07448    -34.07448            0    33.127492   0.94712774     -68.1491            0 
     599    -34.07448    -34.07448            0    33.127492   0.94712773     -68.1491            0 
     600    -34.07448    -34.07448            0    33.127492   0.94712772     -68.1491            0 
     601    -34.07448    -34.07448            0    33.127492    0.9471277   -68.149099            0 
     602    -34.07448    -34.07448            0    33.127492   0.94712769   -68.149099            0 
     603    -34.07448    -34.07448            0    33.127492   0.94712768   -68.149099            0 
     604    -34.07448    -34.07448            0    33.127492   0.94712766   -68.149099            0 
     605    -34.07448    -34.07448            0    33.127492   0.94712764   -68.149099            0 
     606    -34.07448    -34.07448            0    33.127492   0.94712762   -68.149099            0 
     607    -34.07448    -34.07448            0    33.127492   0.94712761   -68.149099            0 
     608    -34.07448    -34.07448            0    33.127492   0.94712759   -68.149099            0 
     609    -34.07448    -34.07448            0    33.127491   0.94712757   -68.149099            0 
     610    -34.07448    -34.07448            0    33.127491   0.94712755   -68.149099            0 
     611    -34.07448    -34.07448            0    33.127491   0.94712753   -68.149098            0 
     612    -34.07448    -34.07448            0    33.127491   0.94712752   -68.149098            0 
     613    -34.07448    -34.07448            0    33.127491    0.9471275   -68.149098            0 
     614    -34.07448    -34.07448            0    33.127491   0.94712748   -68.149098            0 
     615    -34.07448    -34.07448            0    33.127491   0.94712745   -68.149098            0 
     616    -34.07448    -34.07448            0    33.127491   0.94712744   -68.149098            0 
     617    -34.07448    -34.07448            0    33.127491   0.94712742   -68.149098            0 
     618    -34.07448    -34.07448            0    33.127491   0.94712741   -68.149098            0 
     619    -34.07448    -34.07448            0    33.127491   0.94712738   -68.149098            0 
     620    -34.07448    -34.07448            0     33.12749   0.94712735   -68.149097            0 
     621    -34.07448    -34.07448            0     33.12749    0.9471273   -68.149097            0 
     622    -34.07448    -34.07448            0     33.12749   0.94712729   -68.149097            0 
     623    -34.07448    -34.07448            0     33.12749   0.94712728   -68.149097            0 
     624    -34.07448    -34.07448            0     33.12749   0.94712726   -68.149097            0 
     625    -34.07448    -34.07448            0     33.12749   0.94712724   -68.149097            0 
     626    -34.07448    -34.07448            0     33.12749   0.94712722   -68.149097            0 
     627    -34.07448    -34.07448            0     33.12749    0.9471272   -68.149097            0 
     628    -34.07448    -34.07448            0     33.12749   0.94712718   -68.149097            0 
     629    -34.07448    -34.07448            0     33.12749   0.94712717   -68.149096            0 
     630    -34.07448    -34.07448            0     33.12749   0.94712715   -68.149096            0 
     631    -34.07448    -34.07448            0    33.127489   0.94712714   -68.149096            0 
     632    -34.07448    -34.07448            0    33.127489   0.94712712   -68.149096            0 
     633    -34.07448    -34.07448            0    33.127489   0.94712708   -68.149096            0 
     634    -34.07448    -34.07448            0    33.127489   0.94712707   -68.149096            0 
     635    -34.07448    -34.07448            0    33.127489   0.94712706   -68.149096            0 
     636    -34.07448    -34.07448            0    33.127489   0.94712705   -68.149096            0 
     637    -34.07448    -34.07448            0    33.127489   0.94712704   -68.149096            0 
     638    -34.07448    -34.07448            0    33.127489   0.94712702   -68.149096            0 
     639    -34.07448    -34.07448            0    33.127489   0.94712699   -68.149095            0 
     640    -34.07448    -34.07448            0    33.127489   0.94712698   -68.149095            0 
     641    -34.07448    -34.07448            0    33.127489   0.94712697   -68.149095            0 
     642    -34.07448    -34.07448            0    33.127489   0.94712695   -68.149095            0 
     643    -34.07448    -34.07448            0    33.127488   0.94712694   -68.149095            0 
     644    -34.07448    -34.07448            0    33.127488   0.94712691   -68.149095            0 
     645    -34.07448    -34.07448            0    33.127488    0.9471269   -68.149095            0 
     646    -34.07448    -34.07448            0    33.127488   0.94712689   -68.149095            0 
     647    -34.07448    -34.07448            0    33.127488   0.94712687   -68.149095            0 
     648    -34.07448    -34.07448            0    33.127488   0.94712686   -68.149095            0 
     649    -34.07448    -34.07448            0    33.127488   0.94712684   -68.149095            0 
     650    -34.07448    -34.07448            0    33.127488   0.94712683   -68.149095            0 
     651    -34.07448    -34.07448            0    33.127488   0.94712682   -68.149094            0 
     652    -34.07448    -34.07448            0    33.127488    0.9471268   -68.149094            0 
     653    -34.07448    -34.07448            0    33.127488   0.94712679   -68.149094            0 
     654    -34.07448    -34.07448            0    33.127488   0.94712678   -68.149094            0 
     655    -34.07448    -34.07448            0    33.127488   0.94712677   -68.149094            0 
     656    -34.07448    -34.07448            0    33.127488   0.94712676   -68.149094            0 
     657    -34.07448    -34.07448            0    33.127488   0.94712674   -68.149094            0 
     658    -34.07448    -34.07448            0    33.127488   0.94712673   -68.149094            0 
     659    -34.07448    -34.07448            0    33.127487   0.94712671   -68.149094            0 
     660    -34.07448    -34.07448            0    33.127487   0.94712669   -68.149094            0 
     661    -34.07448    -34.07448            0    33.127487   0.94712667   -68.149094            0 
     662    -34.07448    -34.07448            0    33.127487   0.94712666   -68.149094            0 
     663    -34.07448    -34.07448            0    33.127487   0.94712664   -68.149093            0 
     664    -34.07448    -34.07448            0    33.127487   0.94712663   -68.149093            0 
     665    -34.07448    -34.07448            0    33.127487   0.94712662   -68.149093            0 
     666    -34.07448    -34.07448            0    33.127487   0.94712661   -68.149093            0 
     667    -34.07448    -34.07448            0    33.127487   0.94712659   -68.149093            0 
     668    -34.07448    -34.07448            0    33.127487   0.94712657   -68.149093            0 
     669    -34.07448    -34.07448            0    33.127487   0.94712655   -68.149093            0 
     670    -34.07448    -34.07448            0    33.127487   0.94712653   -68.149093            0 
     671    -34.07448    -34.07448            0    33.127487   0.94712652   -68.149093            0 
     672    -34.07448    -34.07448            0    33.127486    0.9471265   -68.149093            0 
     673    -34.07448    -34.07448            0    33.127486   0.94712648   -68.149093            0 
     674    -34.07448    -34.07448            0    33.127486   0.94712646   -68.149092            0 
     675    -34.07448    -34.07448            0    33.127486   0.94712645   -68.149092            0 
     676    -34.07448    -34.07448            0    33.127486   0.94712644   -68.149092            0 
     677    -34.07448    -34.07448            0    33.127486   0.94712643   -68.149092            0 
     678    -34.07448    -34.07448            0    33.127486   0.94712641   -68.149092            0 
     679    -34.07448    -34.07448            0    33.127486    0.9471264   -68.149092            0 
     680    -34.07448    -34.07448            0    33.127486    0.9471264   -68.149092            0 
     681    -34.07448    -34.07448            0    33.127486   0.94712639   -68.149092            0 
     682    -34.07448    -34.07448            0    33.127486   0.94712637   -68.149092            0 
     683    -34.07448    -34.07448            0    33.127486   0.94712635   -68.149092            0 
     684    -34.07448    -34.07448            0    33.127486   0.94712634   -68.149092            0 
     685    -34.07448    -34.07448            0    33.127486   0.94712632   -68.149092            0 
     686    -34.07448    -34.07448            0    33.127486    0.9471263   -68.149092            0 
     687    -34.07448    -34.07448            0    33.127485   0.94712628   -68.149091            0 
     688    -34.07448    -34.07448            0    33.127485   0.94712627   -68.149091            0 
     689    -34.07448    -34.07448            0    33.127485   0.94712625   -68.149091            0 
     690    -34.07448    -34.07448            0    33.127485   0.94712623   -68.149091            0 
     691    -34.07448    -34.07448            0    33.127485   0.94712622   -68.149091            0 
     692    -34.07448    -34.07448            0    33.127485    0.9471262   -68.149091            0 
     693    -34.07448    -34.07448            0    33.127485   0.94712617   -68.149091            0 
     694    -34.07448    -34.07448            0    33.127485   0.94712616   -68.149091            0 
     695    -34.07448    -34.07448            0    33.127485   0.94712612    -68.14909            0 
     696    -34.07448    -34.07448            0    33.127485    0.9471261    -68.14909            0 
     697    -34.07448    -34.07448            0    33.127485   0.94712609    -68.14909            0 
     698    -34.07448    -34.07448            0    33.127484   0.94712607    -68.14909            0 
     699    -34.07448    -34.07448            0    33.127484   0.94712603    -68.14909            0 
     700    -34.07448    -34.07448            0    33.127484   0.94712602    -68.14909            0 
     701    -34.07448    -34.07448            0    33.127484   0.94712601    -68.14909            0 
     702    -34.07448    -34.07448            0    33.127484     0.947126    -68.14909            0 
     703    -34.07448    -34.07448            0    33.127484   0.94712599    -68.14909            0 
     704    -34.07448    -34.07448            0    33.127484   0.94712597    -68.14909            0 
     705    -34.07448    -34.07448            0    33.127484   0.94712594   -68.149089            0 
     706    -34.07448    -34.07448            0    33.127484   0.94712593   -68.149089            0 
     707    -34.07448    -34.07448            0    33.127484   0.94712592   -68.149089            0 
     708    -34.07448    -34.07448            0    33.127484   0.94712591   -68.149089            0 
     709    -34.07448    -34.07448            0    33.127484   0.94712589   -68.149089            0 
     710    -34.07448    -34.07448            0    33.127483   0.94712586   -68.149089            0 
     711    -34.07448    -34.07448            0    33.127483   0.94712585   -68.149089            0 
     712    -34.07448    -34.07448            0    33.127483   0.94712584   -68.149089            0 
     713    -34.07448    -34.07448            0    33.127483   0.94712583   -68.149089            0 
     714    -34.07448    -34.07448            0    33.127483   0.94712581   -68.149089            0 
     715    -34.07448    -34.07448            0    33.127483    0.9471258   -68.149089            0 
     716    -34.07448    -34.07448            0    33.127483   0.94712579   -68.149089            0 
     717    -34.07448    -34.07448            0    33.127483   0.94712578   -68.149089            0 
     718    -34.07448    -34.07448            0    33.127483   0.94712577   -68.149088            0 
     719    -34.07448    -34.07448            0    33.127483   0.94712576   -68.149088            0 
     720    -34.07448    -34.07448            0    33.127483   0.94712574   -68.149088            0 
     721    -34.07448    -34.07448            0    33.127483   0.94712572   -68.149088            0 
     722    -34.07448    -34.07448            0    33.127483    0.9471257   -68.149088            0 
     723    -34.07448    -34.07448            0    33.127483   0.94712569   -68.149088            0 
     724    -34.07448    -34.07448            0    33.127483   0.94712568   -68.149088            0 
     725    -34.07448    -34.07448            0    33.127482   0.94712566   -68.149088            0 
     726    -34.07448    -34.07448            0    33.127482   0.94712564   -68.149088            0 
     727    -34.07448    -34.07448            0    33.127482   0.94712562   -68.149088            0 
     728    -34.07448    -34.07448            0    33.127482    0.9471256   -68.149088            0 
     729    -34.07448    -34.07448            0    33.127482   0.94712559   -68.149087            0 
     730    -34.07448    -34.07448            0    33.127482   0.94712557   -68.149087            0 
     731    -34.07448    -34.07448            0    33.127482   0.94712556   -68.149087            0 
     732    -34.07448    -34.07448            0    33.127482   0.94712554   -68.149087            0 
     733    -34.07448    -34.07448            0    33.127482   0.94712552   -68.149087            0 
     734    -34.07448    -34.07448            0    33.127482   0.94712551   -68.149087            0 
     735    -34.07448    -34.07448            0    33.127482    0.9471255   -68.149087            0 
     736    -34.07448    -34.07448            0    33.127482   0.94712548   -68.149087            0 
     737    -34.07448    -34.07448            0    33.127482   0.94712546   -68.149087            0 
     738    -34.07448    -34.07448            0    33.127481   0.94712545   -68.149087            0 
     739    -34.07448    -34.07448            0    33.127481   0.94712544   -68.149087            0 
     740    -34.07448    -34.07448            0    33.127481   0.94712543   -68.149086            0 
     741    -34.07448    -34.07448            0    33.127481   0.94712541   -68.149086            0 
     742    -34.07448    -34.07448            0    33.127481    0.9471254   -68.149086            0 
     743    -34.07448    -34.07448            0    33.127481   0.94712538   -68.149086            0 
     744    -34.07448    -34.07448            0    33.127481   0.94712536   -68.149086            0 
     745    -34.07448    -34.07448            0    33.127481   0.94712535   -68.149086            0 
     746    -34.07448    -34.07448            0    33.127481   0.94712533   -68.149086            0 
     747    -34.07448    -34.07448            0    33.127481   0.94712531   -68.149086            0 
     748    -34.07448    -34.07448            0    33.127481   0.94712529   -68.149086            0 
     749    -34.07448    -34.07448            0    33.127481   0.94712528   -68.149086            0 
     750    -34.07448    -34.07448            0    33.127481   0.94712527   -68.149086            0 
     751    -34.07448    -34.07448            0     33.12748   0.94712525   -68.149085            0 
     752    -34.07448    -34.07448            0     33.12748   0.94712524   -68.149085            0 
     753    -34.07448    -34.07448            0     33.12748   0.94712522   -68.149085            0 
     754    -34.07448    -34.07448            0     33.12748    0.9471252   -68.149085            0 
     755    -34.07448    -34.07448            0     33.12748   0.94712517   -68.149085            0 
     756    -34.07448    -34.07448            0     33.12748   0.94712512   -68.149085            0 
     757    -34.07448    -34.07448            0     33.12748   0.94712505   -68.149084            0 
     758    -34.07448    -34.07448            0    33.127479   0.94712504   -68.149084            0 
     759    -34.07448    -34.07448            0    33.127479   0.94712503   -68.149084            0 
     760    -34.07448    -34.07448            0    33.127479   0.94712502   -68.149084            0 
     761    -34.07448    -34.07448            0    33.127479     0.947125   -68.149084            0 
     762    -34.07448    -34.07448            0    33.127479   0.94712499   -68.149084            0 
     763    -34.07448    -34.07448            0    33.127479   0.94712497   -68.149084            0 
     764    -34.07448    -34.07448            0    33.127479   0.94712495   -68.149084            0 
     765    -34.07448    -34.07448            0    33.127479   0.94712493   -68.149084            0 
     766    -34.07448    -34.07448            0    33.127479   0.94712492   -68.149084            0 
     767    -34.07448    -34.07448            0    33.127479   0.94712491   -68.149083            0 
     768    -34.07448    -34.07448            0    33.127479   0.94712489   -68.149083            0 
     769    -34.07448    -34.07448            0    33.127479   0.94712486   -68.149083            0 
     770    -34.07448    -34.07448            0    33.127479   0.94712486   -68.149083            0 
     771    -34.07448    -34.07448            0    33.127479   0.94712484   -68.149083            0 
     772    -34.07448    -34.07448            0    33.127479   0.94712483   -68.149083            0 
     773    -34.07448    -34.07448            0    33.127478   0.94712482   -68.149083            0 
     774    -34.07448    -34.07448            0    33.127478    0.9471248   -68.149083            0 
[...]
    1817    -34.07448    -34.07448            0    33.127417   0.94711318    -68.14901            0 
    1818    -34.07448    -34.07448            0    33.127417   0.94711317    -68.14901            0 
    1819    -34.07448    -34.07448            0    33.127417   0.94711317    -68.14901            0 
    1820    -34.07448    -34.07448            0    33.127417   0.94711316    -68.14901            0 
    1821    -34.07448    -34.07448            0    33.127417   0.94711316    -68.14901            0 
    1822    -34.07448    -34.07448            0    33.127417   0.94711315    -68.14901            0 
    1823    -34.07448    -34.07448            0    33.127417   0.94711314    -68.14901            0 
    1824    -34.07448    -34.07448            0    33.127417   0.94711313    -68.14901            0 
    1825    -34.07448    -34.07448            0    33.127417   0.94711312    -68.14901            0 
    1826    -34.07448    -34.07448            0    33.127417   0.94711311    -68.14901            0 
    1827    -34.07448    -34.07448            0    33.127417   0.94711311    -68.14901            0 
    1828    -34.07448    -34.07448            0    33.127417    0.9471131    -68.14901            0 
    1829    -34.07448    -34.07448            0    33.127417    0.9471131    -68.14901            0 
    1830    -34.07448    -34.07448            0    33.127417   0.94711309   -68.149009            0 
    1831    -34.07448    -34.07448            0    33.127417   0.94711309   -68.149009            0 
    1832    -34.07448    -34.07448            0    33.127417   0.94711308   -68.149009            0 
    1833    -34.07448    -34.07448            0    33.127417   0.94711307   -68.149009            0 
    1834    -34.07448    -34.07448            0    33.127417   0.94711307   -68.149009            0 
    1835    -34.07448    -34.07448            0    33.127417   0.94711306   -68.149009            0 
    1836    -34.07448    -34.07448            0    33.127417   0.94711306   -68.149009            0 
    1837    -34.07448    -34.07448            0    33.127416   0.94711304   -68.149009            0 
    1838    -34.07448    -34.07448            0    33.127416   0.94711304   -68.149009            0 
    1839    -34.07448    -34.07448            0    33.127416   0.94711303   -68.149009            0 
    1840    -34.07448    -34.07448            0    33.127416   0.94711303   -68.149009            0 
    1841    -34.07448    -34.07448            0    33.127416   0.94711302   -68.149009            0 
    1842    -34.07448    -34.07448            0    33.127416   0.94711301   -68.149009            0 
    1843    -34.07448    -34.07448            0    33.127416   0.94711301   -68.149009            0 
    1844    -34.07448    -34.07448            0    33.127416     0.947113   -68.149009            0 
    1845    -34.07448    -34.07448            0    33.127416     0.947113   -68.149009            0 
    1846    -34.07448    -34.07448            0    33.127416   0.94711299   -68.149009            0 
    1847    -34.07448    -34.07448            0    33.127416   0.94711298   -68.149009            0 
    1848    -34.07448    -34.07448            0    33.127416   0.94711297   -68.149009            0 
    1849    -34.07448    -34.07448            0    33.127416   0.94711297   -68.149009            0 
    1850    -34.07448    -34.07448            0    33.127416   0.94711296   -68.149009            0 
    1851    -34.07448    -34.07448            0    33.127416   0.94711295   -68.149009            0 
    1852    -34.07448    -34.07448            0    33.127416   0.94711294   -68.149009            0 
    1853    -34.07448    -34.07448            0    33.127416   0.94711293   -68.149008            0 
    1854    -34.07448    -34.07448            0    33.127416   0.94711291   -68.149008            0 
    1855    -34.07448    -34.07448            0    33.127416   0.94711287   -68.149008            0 
    1856    -34.07448    -34.07448            0    33.127415   0.94711286   -68.149008            0 
    1857    -34.07448    -34.07448            0    33.127415   0.94711286   -68.149008            0 
    1858    -34.07448    -34.07448            0    33.127415   0.94711286   -68.149008            0 
    1859    -34.07448    -34.07448            0    33.127415   0.94711285   -68.149008            0 
    1860    -34.07448    -34.07448            0    33.127415   0.94711285   -68.149008            0 
    1861    -34.07448    -34.07448            0    33.127415   0.94711284   -68.149008            0 
    1862    -34.07448    -34.07448            0    33.127415   0.94711284   -68.149008            0 
    1863    -34.07448    -34.07448            0    33.127415   0.94711283   -68.149008            0 
    1864    -34.07448    -34.07448            0    33.127415   0.94711283   -68.149008            0 
    1865    -34.07448    -34.07448            0    33.127415   0.94711282   -68.149008            0 
    1866    -34.07448    -34.07448            0    33.127415    0.9471128   -68.149008            0 
    1867    -34.07448    -34.07448            0    33.127415    0.9471128   -68.149008            0 
    1868    -34.07448    -34.07448            0    33.127415    0.9471128   -68.149008            0 
    1869    -34.07448    -34.07448            0    33.127415   0.94711279   -68.149008            0 
    1870    -34.07448    -34.07448            0    33.127415   0.94711278   -68.149008            0 
    1871    -34.07448    -34.07448            0    33.127415   0.94711278   -68.149007            0 
    1872    -34.07448    -34.07448            0    33.127415   0.94711277   -68.149007            0 
    1873    -34.07448    -34.07448            0    33.127415   0.94711277   -68.149007            0 
    1874    -34.07448    -34.07448            0    33.127415   0.94711276   -68.149007            0 
    1875    -34.07448    -34.07448            0    33.127415   0.94711275   -68.149007            0 
    1876    -34.07448    -34.07448            0    33.127415   0.94711275   -68.149007            0 
    1877    -34.07448    -34.07448            0    33.127415   0.94711274   -68.149007            0 
    1878    -34.07448    -34.07448            0    33.127415   0.94711274   -68.149007            0 
    1879    -34.07448    -34.07448            0    33.127415   0.94711273   -68.149007            0 
    1880    -34.07448    -34.07448            0    33.127415   0.94711273   -68.149007            0 
    1881    -34.07448    -34.07448            0    33.127415   0.94711272   -68.149007            0 
    1882    -34.07448    -34.07448            0    33.127415   0.94711271   -68.149007            0 
    1883    -34.07448    -34.07448            0    33.127415    0.9471127   -68.149007            0 
    1884    -34.07448    -34.07448            0    33.127415   0.94711269   -68.149007            0 
    1885    -34.07448    -34.07448            0    33.127415   0.94711269   -68.149007            0 
    1886    -34.07448    -34.07448            0    33.127415   0.94711268   -68.149007            0 
    1887    -34.07448    -34.07448            0    33.127414   0.94711268   -68.149007            0 
    1888    -34.07448    -34.07448            0    33.127414   0.94711267   -68.149007            0 
    1889    -34.07448    -34.07448            0    33.127414   0.94711266   -68.149007            0 
    1890    -34.07448    -34.07448            0    33.127414   0.94711266   -68.149007            0 
    1891    -34.07448    -34.07448            0    33.127414   0.94711265   -68.149007            0 
    1892    -34.07448    -34.07448            0    33.127414   0.94711265   -68.149007            0 
    1893    -34.07448    -34.07448            0    33.127414   0.94711264   -68.149007            0 
    1894    -34.07448    -34.07448            0    33.127414   0.94711264   -68.149007            0 
    1895    -34.07448    -34.07448            0    33.127414   0.94711263   -68.149007            0 
    1896    -34.07448    -34.07448            0    33.127414   0.94711262   -68.149006            0 
    1897    -34.07448    -34.07448            0    33.127414   0.94711262   -68.149006            0 
    1898    -34.07448    -34.07448            0    33.127414   0.94711261   -68.149006            0 
    1899    -34.07448    -34.07448            0    33.127414   0.94711261   -68.149006            0 
    1900    -34.07448    -34.07448            0    33.127414   0.94711259   -68.149006            0 
    1901    -34.07448    -34.07448            0    33.127414   0.94711258   -68.149006            0 
    1902    -34.07448    -34.07448            0    33.127414   0.94711257   -68.149006            0 
    1903    -34.07448    -34.07448            0    33.127414   0.94711257   -68.149006            0 
    1904    -34.07448    -34.07448            0    33.127414   0.94711256   -68.149006            0 
    1905    -34.07448    -34.07448            0    33.127414   0.94711256   -68.149006            0 
    1906    -34.07448    -34.07448            0    33.127414   0.94711255   -68.149006            0 
    1907    -34.07448    -34.07448            0    33.127414   0.94711254   -68.149006            0 
    1908    -34.07448    -34.07448            0    33.127414   0.94711253   -68.149006            0 
    1909    -34.07448    -34.07448            0    33.127414   0.94711252   -68.149006            0 
    1910    -34.07448    -34.07448            0    33.127414   0.94711252   -68.149006            0 
    1911    -34.07448    -34.07448            0    33.127414   0.94711251   -68.149006            0 
    1912    -34.07448    -34.07448            0    33.127414    0.9471125   -68.149006            0 
    1913    -34.07448    -34.07448            0    33.127413   0.94711249   -68.149006            0 
    1914    -34.07448    -34.07448            0    33.127413   0.94711249   -68.149006            0 
    1915    -34.07448    -34.07448            0    33.127413   0.94711248   -68.149006            0 
    1916    -34.07448    -34.07448            0    33.127413   0.94711247   -68.149006            0 
    1917    -34.07448    -34.07448            0    33.127413   0.94711247   -68.149005            0 
    1918    -34.07448    -34.07448            0    33.127413   0.94711246   -68.149005            0 
    1919    -34.07448    -34.07448            0    33.127413   0.94711246   -68.149005            0 
    1920    -34.07448    -34.07448            0    33.127413   0.94711245   -68.149005            0 
    1921    -34.07448    -34.07448            0    33.127413   0.94711245   -68.149005            0 
    1922    -34.07448    -34.07448            0    33.127413   0.94711243   -68.149005            0 
    1923    -34.07448    -34.07448            0    33.127413   0.94711243   -68.149005            0 
    1924    -34.07448    -34.07448            0    33.127413   0.94711243   -68.149005            0 
    1925    -34.07448    -34.07448            0    33.127413   0.94711242   -68.149005            0 
    1926    -34.07448    -34.07448            0    33.127413   0.94711241   -68.149005            0 
    1927    -34.07448    -34.07448            0    33.127413    0.9471124   -68.149005            0 
    1928    -34.07448    -34.07448            0    33.127413    0.9471124   -68.149005            0 
    1929    -34.07448    -34.07448            0    33.127413    0.9471124   -68.149005            0 
    1930    -34.07448    -34.07448            0    33.127413   0.94711239   -68.149005            0 
    1931    -34.07448    -34.07448            0    33.127413   0.94711238   -68.149005            0 
    1932    -34.07448    -34.07448            0    33.127413   0.94711237   -68.149005            0 
    1933    -34.07448    -34.07448            0    33.127413   0.94711237   -68.149005            0 
    1934    -34.07448    -34.07448            0    33.127413   0.94711236   -68.149005            0 
    1935    -34.07448    -34.07448            0    33.127413   0.94711236   -68.149005            0 
    1936    -34.07448    -34.07448            0    33.127413   0.94711235   -68.149005            0 
    1937    -34.07448    -34.07448            0    33.127413   0.94711235   -68.149005            0 
    1938    -34.07448    -34.07448            0    33.127413   0.94711234   -68.149005            0 
    1939    -34.07448    -34.07448            0    33.127413   0.94711234   -68.149005            0 
    1940    -34.07448    -34.07448            0    33.127413   0.94711233   -68.149005            0 
    1941    -34.07448    -34.07448            0    33.127413   0.94711232   -68.149005            0 
    1942    -34.07448    -34.07448            0    33.127412   0.94711231   -68.149004            0 
    1943    -34.07448    -34.07448            0    33.127412    0.9471123   -68.149004            0 
    1944    -34.07448    -34.07448            0    33.127412    0.9471123   -68.149004            0 
    1945    -34.07448    -34.07448            0    33.127412   0.94711229   -68.149004            0 
    1946    -34.07448    -34.07448            0    33.127412   0.94711229   -68.149004            0 
    1947    -34.07448    -34.07448            0    33.127412   0.94711228   -68.149004            0 
    1948    -34.07448    -34.07448            0    33.127412   0.94711227   -68.149004            0 
    1949    -34.07448    -34.07448            0    33.127412   0.94711227   -68.149004            0 
    1950    -34.07448    -34.07448            0    33.127412   0.94711227   -68.149004            0 
    1951    -34.07448    -34.07448            0    33.127412   0.94711226   -68.149004            0 
    1952    -34.07448    -34.07448            0    33.127412   0.94711226   -68.149004            0 
    1953    -34.07448    -34.07448            0    33.127412   0.94711225   -68.149004            0 
    1954    -34.07448    -34.07448            0    33.127412   0.94711224   -68.149004            0 
    1955    -34.07448    -34.07448            0    33.127412   0.94711223   -68.149004            0 
    1956    -34.07448    -34.07448            0    33.127412   0.94711223   -68.149004            0 
    1957    -34.07448    -34.07448            0    33.127412   0.94711222   -68.149004            0 
    1958    -34.07448    -34.07448            0    33.127412   0.94711221   -68.149004            0 
    1959    -34.07448    -34.07448            0    33.127412   0.94711221   -68.149004            0 
    1960    -34.07448    -34.07448            0    33.127412   0.94711221   -68.149004            0 
    1961    -34.07448    -34.07448            0    33.127412    0.9471122   -68.149004            0 
    1962    -34.07448    -34.07448            0    33.127412    0.9471122   -68.149004            0 
    1963    -34.07448    -34.07448            0    33.127412   0.94711219   -68.149004            0 
    1964    -34.07448    -34.07448            0    33.127412   0.94711219   -68.149004            0 
    1965    -34.07448    -34.07448            0    33.127412   0.94711218   -68.149004            0 
    1966    -34.07448    -34.07448            0    33.127412   0.94711218   -68.149004            0 
    1967    -34.07448    -34.07448            0    33.127412   0.94711217   -68.149004            0 
    1968    -34.07448    -34.07448            0    33.127412   0.94711217   -68.149004            0 
    1969    -34.07448    -34.07448            0    33.127412   0.94711216   -68.149004            0 
    1970    -34.07448    -34.07448            0    33.127412   0.94711216   -68.149003            0 
    1971    -34.07448    -34.07448            0    33.127412   0.94711215   -68.149003            0 
    1972    -34.07448    -34.07448            0    33.127412   0.94711214   -68.149003            0 
    1973    -34.07448    -34.07448            0    33.127412   0.94711214   -68.149003            0 
    1974    -34.07448    -34.07448            0    33.127412   0.94711213   -68.149003            0 
    1975    -34.07448    -34.07448            0    33.127411   0.94711213   -68.149003            0 
    1976    -34.07448    -34.07448            0    33.127411   0.94711212   -68.149003            0 
    1977    -34.07448    -34.07448            0    33.127411   0.94711212   -68.149003            0 
    1978    -34.07448    -34.07448            0    33.127411   0.94711211   -68.149003            0 
    1979    -34.07448    -34.07448            0    33.127411   0.94711211   -68.149003            0 
    1980    -34.07448    -34.07448            0    33.127411   0.94711211   -68.149003            0 
    1981    -34.07448    -34.07448            0    33.127411    0.9471121   -68.149003            0 
    1982    -34.07448    -34.07448            0    33.127411   0.94711209   -68.149003            0 
    1983    -34.07448    -34.07448            0    33.127411   0.94711209   -68.149003            0 
    1984    -34.07448    -34.07448            0    33.127411   0.94711208   -68.149003            0 
    1985    -34.07448    -34.07448            0    33.127411   0.94711207   -68.149003            0 
    1986    -34.07448    -34.07448            0    33.127411   0.94711206   -68.149003            0 
    1987    -34.07448    -34.07448            0    33.127411   0.94711206   -68.149003            0 
    1988    -34.07448    -34.07448            0    33.127411   0.94711205   -68.149003            0 
    1989    -34.07448    -34.07448            0    33.127411   0.94711205   -68.149003            0 
    1990    -34.07448    -34.07448            0    33.127411   0.94711204   -68.149003            0 
    1991    -34.07448    -34.07448            0    33.127411   0.94711204   -68.149003            0 
    1992    -34.07448    -34.07448            0    33.127411   0.94711203   -68.149003            0 
    1993    -34.07448    -34.07448            0    33.127411   0.94711202   -68.149003            0 
    1994    -34.07448    -34.07448            0    33.127411   0.94711201   -68.149003            0 
    1995    -34.07448    -34.07448            0    33.127411   0.94711201   -68.149003            0 
    1996    -34.07448    -34.07448            0    33.127411     0.947112   -68.149002            0 
    1997    -34.07448    -34.07448            0    33.127411   0.94711199   -68.149002            0 
    1998    -34.07448    -34.07448            0    33.127411   0.94711198   -68.149002            0 
    1999    -34.07448    -34.07448            0    33.127411   0.94711198   -68.149002            0 
    2000    -34.07448    -34.07448            0    33.127411   0.94711197   -68.149002            0 
Loop time of 0.0918358 on 4 procs for 2000 steps with 15 atoms

96.7% CPU use with 4 MPI tasks x no OpenMP threads

Minimization stats:
  Stopping criterion = max iterations
  Energy initial, next-to-last, final = 
        -27.3140820331     -34.0744796898     -34.0744796898
  Force two-norm initial, final = 10.7287 0.000351704
  Force max component initial, final = 6.1728 0.000180668
  Final line search alpha, max atom move = 1 0.000180668
  Iterations, force evaluations = 2000 3946

MPI task timing breakdown:
Section |  min time  |  avg time  |  max time  |%varavg| %total
---------------------------------------------------------------
Pair    | 0.0082349  | 0.013268   | 0.018273   |   3.6 | 14.45
Neigh   | 0          | 0          | 0          |   0.0 |  0.00
Comm    | 0.018577   | 0.022701   | 0.026858   |   2.5 | 24.72
Output  | 0.021044   | 0.025269   | 0.032795   |   2.8 | 27.52
Modify  | 0          | 0          | 0          |   0.0 |  0.00
Other   |            | 0.0306     |            |       | 33.32

Nlocal:    3.75 ave 6 max 3 min
Histogram: 3 0 0 0 0 0 0 0 0 1
Nghost:    11.25 ave 12 max 9 min
Histogram: 1 0 0 0 0 0 0 0 0 3
Neighs:    26.25 ave 39 max 12 min
Histogram: 1 0 0 0 1 0 1 0 0 1

Total # of neighbors = 105
Ave neighs/atom = 7
Neighbor list builds = 0
Dangerous builds = 0


Please see the log.cite file for references relevant to this simulation

Total wall time: 0:00:00
